<?xml version="1.0"?>
<VTKFile type="UnstructuredGrid" version="0.1" byte_order="LittleEndian">
  <UnstructuredGrid>
    <Piece NumberOfPoints="670" NumberOfCells="2545">
      <Points>
        <DataArray type="Float64" NumberOfComponents="3" format="ascii">
          8.4547004699707031e+00 0.0000000000000000e+00 9.4739999771118164e+00 5.4250998497009277e+00 7.8277997970581055e+00 0.0000000000000000e+00 1.1895999908447266e+01 1.2527999877929688e+00 0.0000000000000000e+00 1.5697999954223633e+01 1.0121000289916992e+01 0.0000000000000000e+00 0.0000000000000000e+00 2.3563999176025391e+01 3.4423999786376953e+00 8.9849004745483398e+00 1.6746999740600586e+01 0.0000000000000000e+00 1.0482999801635742e+01 2.5090999603271484e+01 0.0000000000000000e+00 1.3314000129699707e+01 3.2752998352050781e+01 0.0000000000000000e+00 7.4064002990722656e+01 3.0853000640869141e+01 2.2804999351501465e+00 6.2498001098632813e+01 3.2571998596191406e+01 0.0000000000000000e+00 5.9526000976562500e+01 4.1205001831054688e+01 0.0000000000000000e+00 1.5737999916076660e+01 4.1583000183105469e+01 0.0000000000000000e+00 2.2978999614715576e+00 3.1923999786376953e+01 0.0000000000000000e+00 6.2915000915527344e+00 4.0342998504638672e+01 0.0000000000000000e+00 5.2361000061035156e+01 3.8617000579833984e+01 0.0000000000000000e+00 7.5915000915527344e+01 4.4771999359130859e+01 1.5578000545501709e+00 1.9000999450683594e+01 5.0588001251220703e+01 0.0000000000000000e+00 4.9305000305175781e+01 5.2543998718261719e+01 0.0000000000000000e+00 0.0000000000000000e+00 4.8169998168945313e+01 2.8438000679016113e+00 9.5609998703002930e+00 5.0125999450683594e+01 0.0000000000000000e+00 4.3875000000000000e+01 4.6797000885009766e+01 0.0000000000000000e+00 4.5534000396728516e+00 5.8881000518798828e+01 0.0000000000000000e+00 1.4585000038146973e+01 5.9285999298095703e+01 0.0000000000000000e+00 3.6789001464843750e+01 5.3534000396728516e+01 0.0000000000000000e+00 3.5215000152587891e+01 6.2680999755859375e+01 0.0000000000000000e+00 4.5138999938964844e+01 6.0173000335693359e+01 0.0000000000000000e+00 6.7004997253417969e+01 6.4008003234863281e+01 0.0000000000000000e+00 1.8579000473022461e+01 6.8140998840332031e+01 0.0000000000000000e+00 2.5170000076293945e+01 5.9189998626708984e+01 0.0000000000000000e+00 4.2848999023437500e+01 6.9903999328613281e+01 0.0000000000000000e+00 9.2350997924804688e+00 6.8228996276855469e+01 0.0000000000000000e+00 2.7534000396728516e+01 6.8210998535156250e+01 0.0000000000000000e+00 3.4417999267578125e+01 7.3407997131347656e+01 0.0000000000000000e+00 5.1555999755859375e+01 6.7935997009277344e+01 0.0000000000000000e+00 5.9111000061035156e+01 7.2907997131347656e+01 0.0000000000000000e+00 6.9595001220703125e+01 7.2024002075195313e+01 0.0000000000000000e+00 5.5062999725341797e+00 7.9000000000000000e+01 8.9568001031875610e-01 4.0805000305175781e+01 7.9000000000000000e+01 5.1012997627258301e+00 1.4512999534606934e+01 7.7561996459960938e+01 9.7149002552032471e-01 2.3964000701904297e+01 7.7051002502441406e+01 0.0000000000000000e+00 5.0015998840332031e+01 7.8160003662109375e+01 1.2245999574661255e+00 6.5184997558593750e+01 7.9000000000000000e+01 3.3808000087738037e+00 3.2040000915527344e+01 2.7622001171112061e+00 1.3603999614715576e+00 2.2299999237060547e+01 3.0503000259399414e+01 0.0000000000000000e+00 6.4650001525878906e+01 3.2928001403808594e+01 6.6651000976562500e+00 6.9906997680664063e+01 3.7886001586914063e+01 0.0000000000000000e+00 2.4649000167846680e+01 4.0430000305175781e+01 0.0000000000000000e+00 6.5850997924804688e+01 4.5585998535156250e+01 0.0000000000000000e+00 5.6992000579833984e+01 5.0619998931884766e+01 9.2062997817993164e-01 7.7263999938964844e+01 6.5329002380371094e+01 1.7071000337600708e+00 0.0000000000000000e+00 7.0035003662109375e+01 2.4368000030517578e+00 0.0000000000000000e+00 5.0338001251220703e+00 7.7413997650146484e+00 5.6347000122070313e+01 8.4788999557495117e+00 8.3694000244140625e+00 0.0000000000000000e+00 1.4753999710083008e+01 5.5370998382568359e+00 1.9983999252319336e+01 2.0402000427246094e+01 0.0000000000000000e+00 2.4673000335693359e+01 1.0862999916076660e+01 0.0000000000000000e+00 5.4810001373291016e+01 3.7521999359130859e+01 8.0817003250122070e+00 6.7670997619628906e+01 4.7709999084472656e+01 1.1034000396728516e+01 4.8374000549316406e+01 4.4874000549316406e+01 1.0774000167846680e+01 2.7658000946044922e+01 4.9956001281738281e+01 0.0000000000000000e+00 0.0000000000000000e+00 5.4826000213623047e+01 8.8561000823974609e+00 5.7103000640869141e+01 6.0873001098632813e+01 0.0000000000000000e+00 7.7561996459960938e+01 7.5480003356933594e+01 1.6086000204086304e+00 7.1399002075195313e+01 7.7070999145507813e+01 8.2274999618530273e+00 4.2929000854492188e+01 1.6121000051498413e+00 3.6649999618530273e+00 5.4206001281738281e+01 1.1590000391006470e+00 1.8410999774932861e+00 6.5168998718261719e+01 1.1729999780654907e+00 5.7322001457214355e+00 3.5750999450683594e+01 9.2822999954223633e+00 6.4046998023986816e+00 2.9795999526977539e+01 1.6999000549316406e+01 6.5437998771667480e+00 0.0000000000000000e+00 3.0544000625610352e+01 1.1463999748229980e+01 3.9789001464843750e+01 5.0728000640869141e+01 1.0395000457763672e+01 7.1414001464843750e+01 6.5475997924804688e+01 1.3284999847412109e+01 7.9000000000000000e+01 7.1896003723144531e+01 9.8513002395629883e+00 1.0753999710083008e+01 7.9000000000000000e+01 1.0651000022888184e+01 4.6383998870849609e+01 8.1068000793457031e+00 9.0942001342773438e+00 0.0000000000000000e+00 2.1704000473022461e+01 1.3612999916076660e+01 0.0000000000000000e+00 3.8967998504638672e+01 7.4418997764587402e+00 5.2498001098632813e+01 5.7319000244140625e+01 6.7776999473571777e+00 0.0000000000000000e+00 6.3604000091552734e+01 7.7725000381469727e+00 3.0336999893188477e+01 7.9000000000000000e+01 7.3783998489379883e+00 3.7071998596191406e+01 7.9000000000000000e+01 1.4201000213623047e+01 4.7393001556396484e+01 7.9000000000000000e+01 1.2000000000000000e+01 5.6618000030517578e+01 7.9000000000000000e+01 8.9799995422363281e+00 2.1945999145507813e+01 8.2323002815246582e-01 1.1420999765396118e+00 7.4424003601074219e+01 1.4004000425338745e+00 1.3036000251770020e+01 6.5001998901367188e+01 7.5220999717712402e+00 1.1864000320434570e+01 2.7670000076293945e+01 2.6166999816894531e+01 5.8758997917175293e+00 7.0658996582031250e+01 3.3988998413085938e+01 1.1319000244140625e+01 7.9000000000000000e+01 3.8712001800537109e+01 6.2112998962402344e+00 3.1791999816894531e+01 4.5377998352050781e+01 7.3000001907348633e+00 7.7661003112792969e+01 5.0306999206542969e+01 2.0506999969482422e+01 6.4193000793457031e+01 6.4253997802734375e+01 8.7519998550415039e+00 0.0000000000000000e+00 7.0791999816894531e+01 1.4208999633789063e+01 2.0113999843597412e+00 7.7304000854492188e+01 9.5032997131347656e+00 2.0274999618530273e+01 7.9000000000000000e+01 9.6187000274658203e+00 4.7625999450683594e+01 0.0000000000000000e+00 1.0685999870300293e+01 6.6231002807617188e+01 0.0000000000000000e+00 1.4979999542236328e+01 5.1075000762939453e+01 1.5442999839782715e+01 1.4404000282287598e+01 0.0000000000000000e+00 1.1479000091552734e+01 1.4689999580383301e+01 3.9594001770019531e+01 1.5362000465393066e+01 1.2904000282287598e+01 3.5612998962402344e+01 2.4815000534057617e+01 1.1352000236511230e+01 3.1396999359130859e+01 3.5243999481201172e+01 7.8811998367309570e+00 6.1377998352050781e+01 3.7104999542236328e+01 1.3067999839782715e+01 5.6654998779296875e+01 5.3200000762939453e+01 9.4231996536254883e+00 6.4013999938964844e+01 7.9000000000000000e+01 1.4755000114440918e+01 1.7631000518798828e+01 0.0000000000000000e+00 9.2853002548217773e+00 2.8399000167846680e+01 0.0000000000000000e+00 9.5581998825073242e+00 4.5245998382568359e+01 2.3044000625610352e+01 1.5536000251770020e+01 7.9000000000000000e+01 3.4321998596191406e+01 1.2753000259399414e+01 0.0000000000000000e+00 4.5963001251220703e+01 1.3388999938964844e+01 5.4459999084472656e+01 7.9000000000000000e+01 1.9620000839233398e+01 3.7625000000000000e+01 0.0000000000000000e+00 1.1810999870300293e+01 2.2012999057769775e+00 9.1500997543334961e-01 1.6733999252319336e+01 4.0370998382568359e+01 3.2930999755859375e+01 1.4130000114440918e+01 3.9324001312255859e+01 4.2176998138427734e+01 1.3161000251770020e+01 7.0350997924804688e+01 3.7027000427246094e+01 1.9770000457763672e+01 5.0323001861572266e+01 4.3016998291015625e+01 1.5439000129699707e+01 7.9000000000000000e+01 4.7923999786376953e+01 1.0817000389099121e+01 0.0000000000000000e+00 5.3338001251220703e+01 1.8139999389648438e+01 0.0000000000000000e+00 6.2106998443603516e+01 1.6913999557495117e+01 2.6340999603271484e+01 7.9000000000000000e+01 1.7107000350952148e+01 4.4386001586914063e+01 7.9000000000000000e+01 2.1638999938964844e+01 7.3585998535156250e+01 7.7263000488281250e+01 1.6805000305175781e+01 5.7448001861572266e+01 0.0000000000000000e+00 1.0897999763488770e+01 6.9986999511718750e+01 7.5074000358581543e+00 1.8818000793457031e+01 6.0845001220703125e+01 1.5067000389099121e+01 1.6871000289916992e+01 5.6210998535156250e+01 2.3722999572753906e+01 2.0097000122070313e+01 4.8807998657226563e+01 3.0643999099731445e+01 1.8881000518798828e+01 0.0000000000000000e+00 3.8042999267578125e+01 1.8180999755859375e+01 1.0680999755859375e+01 7.9000000000000000e+01 2.7812999725341797e+01 2.2604000091552734e+01 0.0000000000000000e+00 1.6698999404907227e+01 0.0000000000000000e+00 7.8125000000000000e+00 2.3347999572753906e+01 0.0000000000000000e+00 1.8354000091552734e+01 2.2153999328613281e+01 0.0000000000000000e+00 2.8687000274658203e+01 2.2399000167846680e+01 4.8618000030517578e+01 4.0152999877929688e+01 1.8815999984741211e+01 6.9740997314453125e+01 5.3061000823974609e+01 2.2965000152587891e+01 5.7473999023437500e+01 6.2942001342773438e+01 1.4317999839782715e+01 1.5760000228881836e+01 7.9000000000000000e+01 1.9052999496459961e+01 3.3675998687744141e+01 7.9000000000000000e+01 2.3020000457763672e+01 1.2690999984741211e+01 0.0000000000000000e+00 1.8701000213623047e+01 5.2098999023437500e+01 0.0000000000000000e+00 1.8371000289916992e+01 0.
[...]
      <PointData>
        <DataArray type="Float64" Name="A" NumberOfComponents="3" format="ascii">
          2.0197767014451529e-08 0.0000000000000000e+00 -1.8896239240007162e-08 -2.3578305530236321e-08 8.9114195134243346e-08 0.0000000000000000e+00 7.9008181330664229e-08 6.0748511998554022e-08 0.0000000000000000e+00 -1.2182366226909380e-08 1.3350991423521918e-07 0.0000000000000000e+00 0.0000000000000000e+00 2.4733358827688789e-07 -5.2337338907193498e-09 6.8160472821432450e-09 1.3649163577156287e-07 0.0000000000000000e+00 7.5810957511635024e-10 1.9465410616703593e-07 0.0000000000000000e+00 -4.8386048945303628e-08 2.9507864951483498e-07 0.0000000000000000e+00 6.2543676904169843e-07 4.9082501618613605e-07 -4.9256698275712552e-08 3.7078820014357916e-07 2.0180874571451568e-07 0.0000000000000000e+00 3.1374628406410920e-07 1.6930185608998727e-07 0.0000000000000000e+00 1.0679232609334122e-08 2.7045484785048757e-07 0.0000000000000000e+00 2.3651496761090129e-08 1.9543017515388783e-07 0.0000000000000000e+00 -1.3577093227468140e-08 2.1169286412714428e-07 0.0000000000000000e+00 3.3364884188813448e-07 6.8196385427654604e-08 0.0000000000000000e+00 2.1930684113158350e-07 4.0059484263110789e-07 -4.3014622974624217e-08 3.3257421705457091e-08 2.7321533480062499e-07 0.0000000000000000e+00 1.9731729139493837e-07 2.4809418164295494e-07 0.0000000000000000e+00 0.0000000000000000e+00 3.0553866281479714e-07 3.0113056936897920e-08 -6.5699737206159625e-08 2.8234450155650848e-07 0.0000000000000000e+00 2.0884687046418549e-07 2.9464771955645119e-07 0.0000000000000000e+00 9.2582386201911504e-09 2.4854500679794000e-07 0.0000000000000000e+00 4.4314607094975145e-08 2.1942244643469166e-07 0.0000000000000000e+00 7.9601676361562568e-08 3.0292571295831294e-07 0.0000000000000000e+00 9.6332179566616105e-08 3.4341979926466593e-07 0.0000000000000000e+00 8.3914123649719841e-08 3.3113269637397025e-07 0.0000000000000000e+00 2.1027858565503266e-07 2.9973713822073478e-07 0.0000000000000000e+00 9.2217533165239729e-08 2.6699575528255082e-07 0.0000000000000000e+00 6.7477408549621032e-08 3.5132612197230628e-07 0.0000000000000000e+00 2.5418228233320406e-07 3.1670720090914983e-07 0.0000000000000000e+00 2.8765693826926508e-08 2.6095031557815673e-07 0.0000000000000000e+00 1.3279505139962566e-07 3.9337524526672496e-07 0.0000000000000000e+00 2.4908214868446521e-07 3.7371768257798976e-07 0.0000000000000000e+00 2.0493149577305303e-07 2.8415115593816154e-07 0.0000000000000000e+00 3.2071685041046294e-07 2.8490083536780730e-07 0.0000000000000000e+00 2.6348615733695624e-07 2.8693204967566999e-07 0.0000000000000000e+00 2.1361573843137194e-08 2.5915153401001589e-07 1.7651787587169565e-08 2.1119862481100427e-07 3.8708313354618440e-07 -6.8646222928236966e-08 1.0539196892977998e-07 2.7473211616779736e-07 -8.8383679042181029e-08 1.2596989051871788e-07 3.4541608329163864e-07 0.0000000000000000e+00 2.2079278494402388e-07 2.1466310329287808e-07 -6.1172563903255650e-08 2.1198094657393085e-07 3.5902235140383709e-07 -1.2581428343594325e-08 1.1347609962797378e-08 5.6504077861063706e-08 -2.0956032642516220e-07 -2.3991251651978018e-08 2.5256568392251211e-07 0.0000000000000000e+00 4.3691392193068168e-07 2.2525979659349105e-07 -1.5150058985113901e-08 4.8888364290178288e-07 2.8488958037087286e-07 0.0000000000000000e+00 3.4342082955163278e-08 2.0742587025779358e-07 0.0000000000000000e+00 2.7043046202379628e-07 2.4755578920121479e-07 0.0000000000000000e+00 2.0711537729312113e-07 1.7373474747728324e-07 -1.0469629074805198e-07 2.6638474537321599e-07 3.1262842981050198e-07 3.2229736657285457e-09 0.0000000000000000e+00 2.9056744210720353e-07 -2.9758142616742589e-08 0.0000000000000000e+00 1.1555535905927172e-07 -4.5063725195859661e-08 4.1550160290171334e-07 3.2710559594306687e-08 -1.5993168744898867e-07 0.0000000000000000e+00 1.1282066481044239e-07 -1.0575278963642631e-07 -2.0679333800899258e-09 9.8401756076782476e-08 0.0000000000000000e+00 -1.5052927793135495e-08 1.6098978505851846e-07 0.0000000000000000e+00 3.8661968915221223e-07 7.7648138585573179e-08 -6.7045661467091122e-08 2.0551070178953523e-07 2.8671786367340246e-07 -1.2462908216548385e-07 1.4349765820043103e-07 8.2857866345875664e-08 -1.4986589746968093e-07 7.2510580650941847e-08 2.8973943244636757e-07 0.0000000000000000e+00 0.0000000000000000e+00 2.9726436423516134e-07 5.6037158913113672e-08 2.1193521604345733e-07 2.0333857264631661e-07 0.0000000000000000e+00 3.2696087259864726e-07 2.4923113528529939e-07 -1.1023983148561456e-07 3.3024960544025816e-07 3.5207185078434122e-07 1.4957654670411102e-08 2.4065272441475827e-07 2.9484224839393391e-08 -1.9252216532095190e-07 3.1602337458025431e-07 1.3105396590162854e-07 -1.7274093977448501e-07 4.8215594006251195e-07 9.4231722869153600e-08 -9.8771316459078662e-08 1.0266145267223692e-07 -6.4231187479890650e-08 -2.4661241582180082e-07 2.4660028685730140e-08 1.1452473103190641e-07 -9.9889781779438636e-08 0.0000000000000000e+00 1.7396007478964748e-07 -3.0816665885780026e-10 1.0302640873760538e-07 2.5351204158141627e-07 -1.6691281246039580e-07 3.6045784668203851e-07 3.1540440659227897e-07 -2.9150413638490136e-08 3.5987710589324706e-07 3.1671856959292199e-07 -6.0387698397335043e-08 4.1274866191542969e-08 2.9079507157803164e-07 -1.1756338835766655e-07 2.6328280000598170e-07 4.2220058560360485e-08 -2.0742692186104250e-07 0.0000000000000000e+00 9.8324221653456334e-08 -5.1678028967216960e-08 0.0000000000000000e+00 1.8737272000635130e-07 -2.9446141081024280e-09 1.4455379471201013e-07 2.7001672719961789e-07 -8.9059980723504850e-08 0.0000000000000000e+00 2.7617468845164694e-07 -5.0038828192100482e-08 2.0771214792603132e-07 4.0813512214299408e-07 -2.9864025918868720e-08 1.7054479428679770e-07 3.2324402354788617e-07 -1.5447868406681664e-07 2.5548010285092460e-07 3.8563058524232474e-07 -8.7894527212029061e-08 2.9158164238651807e-07 2.2086238971041894e-07 -1.8214418417983325e-08 -2.2811663669131121e-08 2.0596633021341404e-07 -7.4593273780010350e-08 3.1112762144402950e-07 1.5848226553316636e-07 -5.2026912555902527e-08 3.5979419976683857e-07 -6.4959287726651382e-08 -3.6138768422233625e-08 -1.0571734776476660e-07 8.3329517508445861e-08 -1.5118430951588380e-07 4.6037158085709962e-07 3.9342165791822481e-07 4.5545551330405942e-08 4.9445861804997548e-07 4.2969847413587559e-07 1.4810028403644537e-07 7.7414881616277853e-08 2.4169736434487277e-07 -8.1244742489161581e-08 1.4578439788692776e-07 4.9194812845598790e-07 -8.5218097467532061e-08 3.1567054747938528e-07 3.1426287705471623e-07 -5.8607902531093714e-08 0.0000000000000000e+00 2.3300935936276801e-07 -6.8626722082854030e-09 -2.3473667454254610e-08 2.7058027285420394e-07 -1.0811523232234777e-08 8.4853965631737083e-08 2.5527214120302233e-07 -1.0253499027612634e-07 2.1240826697521697e-07 0.0000000000000000e+00 -3.1056595162226586e-07 2.7983583095192444e-07 0.0000000000000000e+00 -1.0122643345766846e-07 3.4918750202450610e-07 2.8815525965342204e-08 -1.3570065959811473e-07 0.0000000000000000e+00 1.1656982223939849e-07 -6.4352242645782098e-08 1.4474888132554042e-07 -3.4410685856300915e-08 -2.5674773951323004e-07 1.2326290743658319e-07 1.0092534807881748e-07 -2.2830256796169124e-07 2.5498771094589756e-08 1.8498232634556189e-07 -1.1154371293287113e-07 3.6727627161781129e-07 1.9070864709647140e-07 -7.2341315160429076e-08 1.8248499600304058e-07 2.4396658204750565e-07 -1.4006923265696969e-07 2.1953491113890777e-07 2.8979818011976022e-07 7.6555274119982641e-08 -7.8832007588403030e-09 0.0000000000000000e+00 -7.4884795253638003e-08 1.0945263362316382e-08 0.0000000000000000e+00 -1.9354790481429518e-07 1.9417167607116426e-07 1.4965275241252129e-08 -2.5058744768102770e-07 4.8950778364087455e-07 5.8839378880293225e-07 1.5728037539020079e-08 0.0000000000000000e+00 2.2646896979949815e-07 -6.0865701811962936e-08 2.6283078113920055e-07 3.1697888402959506e-07 -8.0722912798592006e-08 1.8347125774198503e-07 0.0000000000000000e+00 -2.7276905711914878e-07 6.1293540909446165e-08 1.0134533567907056e-07 -2.9026890047134657e-07 1.7449720246531797e-07 1.5502234873565612e-07 -1.5786918083904311e-07 9.9335657921528764e-08 1.5872852543452609e-07 -1.4862598618492484e-07 4.3923168391302170e-07 4.7454693685722305e-07 -7.5292504675417149e-08 2.7648243872135936e-07 1.9278795093669032e-07 -1.7817195896441262e-07 3.2412356176791945e-07 5.7600374248067965e-07 8.3841920073268739e-09 0.0000000000000000e+00 3.4480905242162407e-07 -2.0183088533798355e-09 0.0000000000000000e+00 2.8961667908333766e-07 -8.0046987704918138e-08 1.2167259910711437e-07 3.4273256233063876e-07 -8.9742776765433518e-08 2.0937658007369464e-07 2.8586993039425579e-07 -1.2959660011802043e-07 2.7712269456969807e-07 3.9435340681848174e-07 3.9352066494302562e-08 3.6560098237714556e-07 0.0000000000000000e+00 -2.3892491185506515e-07 3.5808176335194730e-07 -1.7484126146882772e-08 -3.3303098057047009e-09 3.6186588658893015e-07 1.9123172378954223e-08 -9.1401723523176770e-08 3.2108232517202850e-07 4.7883492726441546e-08 -2.2386130638096802e-07 2.5036612782969314e-07 9.7495345130482747e-08 -2.1352920498429739e-07 0.0000000000000000e+00 1.8234976550957072e-07 -2.8855591693854876e-08 1.7218123105067207e-07 2.9183340188865259e-07 -2.5982174634009425e-07 1.2566184182105644e-07 0.0000000000000000e+00 -1.7126039608683641e-07 0.0000000000000000e+00 -1.0516451709463581e-07 -2.8498084247985389e-07 0.0000000000000000e+00 3.3001644084151849e-08 -9.9023083066640538e-08 0.0000000000000000e+00 1.9355459812686604e-07 -1.0727580956881866e-07 2.8264153684176563e-07 2.8887259873044968e-07 -2.6679717279876058e-07 1.6291994597850135e-07 4.0766761344457336e-07 -2.0893403984700853e-07 2.3296111351100990e-07 3.4554557259980356e-07 -1.5742618586500612e-07 1.7770935301086865e-07 3.2667159644006460e-07 -1.5717907331236347e-07 1.5220287252759590e-07 3.0530998174072010e-07 -6.7497339273359103e-08 1.0090424495956540e-07 0.0000000000000000e+00 -1.0493381807918922e-07 2.4674091037013568e-07 0.0000000000000000e+00 -2.6544086040303227e-07 0.0000000000000000e+00 -1.3416747712824417e-08 -7.7599572989583976e-08 3.6476964737630624e-07 2.6455762736077304e-07 -4.2476049344486455e-08 0.0000000000000000e+00 1.9164608033861441e-07 -4.0672375689609908e-08 1.3569743373409437e-07 3.8010873026905756e-07 -1.9838411446926330e-07 1.3520450181658816e-07 2.9068377216390218e-07 -1.0638161995757400e-07 2.1729216825860931e-07 0.0000000000000000e+00 -2.1179204168220167e-07 1.9779160709276766e-07 0.0000000000000000e+00 -2.2559278534117766e-07 3.0001402251400577e-07 0.0000000000000000e+00 -1.5767015781875671e-07 3.7743103575849091e-07 0.0000000000000000e+00 -8.2159480996324419e-08 1.7594017265309958e-07 0.0000000000000000e+00 -2.2235414576243784e-07 3.3089708040279220e-07 8.4406636347011954e-08 -1.1982281478140067e-07 1.7130234652995568e-07 2.7420969672675710e-07 -1.1779555109114881e-07 9.9050424751112587e-08 2.6578393885756668e-07 -1.5078680348779017e-07 2.4271423626487376e-07 2.8943222218913434e-07 -1.3065584880678216e-07 2.2567795099348587e-07 3.7625673598995490e-07 -7.4654110671090734e-10 9.1088061537902831e-08 5.3830120805287152e-07 7.6485619615596079e-08 1.6782108502866322e-07 3.3335388138766575e-07 -1.5040986056646943e-07 1.7222363624114223e-07 0.0000000000000000e+00 -2.4024060962801741e-07 2.3592683362494427e-07 9.2462393297410017e-08 -2.6074340553350339e-07 3.2569624863754143e-07 3.8515963751706295e-07 -1.7237518079582514e-07 0.0000000000000000e+00 2.7976261662843172e-07 -5.9629265081184712e-08 2.3028842122130300e-07 3.1890542118162557e-07 5.4336325661097362e-08 4.1616027601776295e-07 4.2313476456001808e-07 -8.8600003778083192e-08 1.9108955484625767e-07 3.1618526463716989e-07 -1.1724297621640289e-07 2.9325644845812349e-07 0.0000000000000000e+00 -2.3486457223498292e-07 0.0000000000000000e+00 -2.3693322859230648e-08 -2.2544723776718456e-07 0.0000000000000000e+00 2.2030512525361701e-07 -1.0537841177438168e-07 3.2213904432865093e-07 5.2751835255548940e-07 -3.6866047992134554e-08 1.6265603619558533e-07 1.9436515685811173e-07 -2.3498438395108678e-07 0.0000000000000000e+00 2.7319410378368048e-07 -1.8965731385378604e-07 0.0000000000000000e+00 2.7445148020888155e-07 -4.0022158032115840e-08 0.0000000000000000e+00 2.7125943802275287e-07 -1.1391274057359624e-07 1.9041313237266877e-07 2.4913916263358260e-07 -4.8591637380468455e-08 2.2540137933901860e-07 2.7292765025777044e-07 -5.1419089430737586e-08 2.5179338081215974e-07 3.1721140203444520e-07 -6.4899509766291885e-08 2.3104136914753326e-07 7.4699704200043016e-09 -4.5875232501657592e-08 3.3701795132401458e-07 2.3175774188644027e-08 -5.8711386863308235e-09 0.0000000000000000e+00 4.7613230691467834e-08 -1.1280241096756072e-07 0.0000000000000000e+00 1.2400110449561907e-07 -1.3925790653956938e-07 0.0000000000000000e+00 2.1667382554824144e-07 -6.6868821591015148e-08 1.5803917108314636e-07 3.7943513575555698e-07 -4.9530594736779676e-08 9.8546024673851207e-08 3.0960677577240858e-07 -1.3905098228406132e-07 1.4719365992732492e-07 2.7427941517998988e-07 -1.8138696589176106e-07 9.5333021477017610e-08 3.2840796393429628e-07 -2.4900242578951293e-07 1.5991491864042473e-07 2.5211065235453134e-07 -9.2726452294300543e-08 2.7384558620724420e-07 0.0000000000000000e+00 -2.5818698645707627e-07 2.2285288991952257e-07 0.0000000000000000e+00 -1.4480971799457620e-07 0.0000000000000000e+00 -1.7872352486847376e-08 -1.9863141176301724e-07 2.7991745810140856e-07 1.6440257866179309e-07 -2.8530061513265537e-07 3.2672656402610301e-07 5.2486166168819182e-07 3.2137126737552535e-08 0.0000000000000000e+00 2.5495685918031086e-07 -1.8709737048538955e-07 2.1251887005746539e-07 1.7998918622197380e-07 2.0217882479300897e-08 2.9835450732207391e-07 0.0000000000000000e+00 -2.4248120666925388e-07 0.0000000000000000e+00 -1.4461023489786839e-08 -1.8793141975947947e-07 5.7412204768070296e-08 3.2696416951694118e-07 -1.2781443103904166e-07 1.7808073948799574e-07 5.4414755368270562e-07 -1.2462214371566915e-08 1.9297119990824285e-07 1.9237305082242528e-07 -1.5525567675922503e-07 8.5067071609046252e-08 3.1969591418601340e-07 -1.9633920089745516e-07 1.6200816332911927e-07 0.0000000000000000e+00 -2.0730398375690129e-07 3.1523472898697946e-07 1.1555910361948918e-07 -1.4293235039986030e-07 0.0000000000000000e+00 1.8588375283457026e-08 -1.1889117246255410e-07 2.7619122988653544e-07 8.1116965588989842e-08 -1.2590061260198127e-07 0.0000000000000000e+00 1.5301763767183729e-07 -1.1829338575353177e-07 1.9903573900137417e-07 3.0945278695071465e-07 -1.6298461957831023e-07 1.3798458553537785e-07 1.9531861994437349e-07 -1.8707920901306352e-07 8.1050330891230260e-08 3.0798270245213644e-07 -4.5403591997228432e-08 2.2808143285146798e-07 2.6375411721346609e-07 -1.5852947399253026e-07 5.0558004005551993e-08 1.9274489204690326e-07 -9.4491028335141891e-08 1.9853767696531577e-07 0.0000000000000000e+00 -2.2305037816749973e-07 2.7268259827906149e-07 0.0000000000000000e+00 -2.7093474841421994e-07 2.4916127472351945e-07 1.0799309535514112e-07 -2.0582476167874120e-07 0.0000000000000000e+00 1.8146851132883057e-08 -1.2296807483380690e-07 -1.5209158377160747e-08 2.8807966145905084e-07 -2.9390090361403054e-08 5.7863807967351022e-08 3.6078083098800562e-07 -9.6198583321438491e-08 2.0072039319529722e-07 2.2426897317018302e-07 -7.3398197741880722e-08 9.5083223072833789e-08 0.0000000000000000e+00 -3.1735211791783513e-07 2.5146198368020123e-07 0.0000000000000000e+00 -3.3948825262086757e-07 2.7553068093766342e-07 1.3817471256061253e-07 -1.4456880137458938e-07 2.9016280223004287e-07 1.6639461364320596e-07 -2.2702631952142838e-07 0.0000000000000000e+00 1.7582577527264220e-07 -2.8436170396162197e-07 1.2490625067584915e-07 3.3971579682656738e-07 -6.2793624522328173e-08 -3.1958638402329598e-08 4.1060349076360581e-07 1.0949427142747936e-08 0.0000000000000000e+00 3.3321123282803455e-07 -2.8582672939592157e-07 2.0235438569216058e-07 7.6785120484146319e-08 -6.6854241254077351e-08 0.0000000000000000e+00 7.9854585166572178e-09 -1.6874861330506974e-07 3.5666992914684670e-08 3.1112932674659532e-07 -1.0028150398966318e-07 1.5382113360828953e-08 3.9687267872068333e-07 -1.0122043647697865e-07 1.3378034680044948e-07 2.2366947405316751e-07 7.0848571454007470e-09 1.6673459057869877e-08 2.0728847971440700e-07 6.7317138530142984e-08 7.5857087722397409e-08 0.0000000000000000e+00 -1.8550032621078572e-07 1.1788905140974748e-07 0.0000000000000000e+00 -2.2266860355557583e-07 1.8108917743120401e-07 1.2030115570382804e-08 -1.0971546515747832e-07 0.0000000000000000e+00 1.0355275747997439e-08 -1.3783116514787253e-07 2.2049110270927486e-07 1.1337395733335143e-07 -1.3396928011388809e-07 0.0000000000000000e+00 4.4600266591032778e-08 -1.6169411765076802e-07 0.0000000000000000e+00 9.2234202497820661e-08 -1.6527445723113487e-07 5.6066767228912795e-08 3.3608458238632011e-07 -6.1728746558742387e-09 0.0000000000000000e+00 2.9152906222407182e-07 -3.2117182513502485e-07 1.8151692415813159e-07 2.6398444674669008e-07 -1.9912685900180804e-07 2.2492082507596933e-07 1.7356487092001771e-07 -8.8474941151162056e-08 5.6746152665709815e-08 2.5154210447908554e-07 -2.0265663636109821e-07 2.0320871385592909e-07 0.0000000000000000e+00 -3.1782192877471971e-07 2.6824088195098739e-07 0.0000000000000000e+00 -2.4220960881393694e-07 2.7927441692554567e-07 0.0000000000000000e+00 -2.5090750455092348e-07 1.5103009332051442e-07 1.4182138841078995e-07 -1.7580799749339349e-07 1.6633285326861369e-07 1.9516082261361589e-07 -2.2208219263575302e-07 8.5535660332425323e-08 2.6328251578888739e-07 -5.2959126861651384e-08 7.5817986555648531e-08 3.0527934313795413e-07 -4.4703273971435920e-08 2.6842254641223917e-08 3.5167275314051949e-07 -1.8992928119132557e-07 1.4154423411127937e-07 2.4234307716142212e-07 -1.4002812065427861e-07 2.0270410061584698e-07 0.0000000000000000e+00 -2.4588354108345811e-07 2.3442180463462137e-07 7.1731712125711056e-08 -8.4212935291816393e-08 1.2456072795430373e-07 1.6105316547054827e-07 -2.7786524015027680e-07 -4.9246122735269182e-09 2.3023396522603434e-07 -1.0889729651353264e-07 6.7739584608261794e-08 3.4199771903331566e-07 -6.1172578114110365e-08 8.5629032753331558e-08 1.9744558699130721e-07 -1.3418167554846150e-07 0.0000000000000000e+00 3.2516103942725749e-07 -3.6354717281028570e-07 1.5282229526292213e-07 0.0000000000000000e+00 -3.1255498811333382e-07 1.9589610644743516e-07 0.0000000000000000e+00 -2.5737259079505748e-07 9.0829104237855063e-08 3.8356041898168769e-08 -1.4168467998842971e-07 0.0000000000000000e+00 1.9417691987655417e-07 -3.1149178880696127e-07 9.3108898369109738e-09 2.3664085802010959e-07 -1.8396220013983111e-07 3.1542615630542059e-08 1.8059976980566717e-07 2.7719581296992146e-08 8.3854317267650913e-08 0.0000000000000000e+00 -2.1717032439028117e-07 1.6055467710884841e-07 0.0000000000000000e+00 -2.2802819898970483e-07 1.7398078000496753e-07 4.0024186631626435e-08 4.8865462787262004e-09 0.0000000000000000e+00 3.3198517712662579e-08 -1.8014485192452412e-07 1.9922079275147553e-07 6.7036950213150703e-08 -1.5897985861101915e-07 0.0000000000000000e+00 4.5440611273761533e-08 -2.9751276997558307e-07 5.2107758108377311e-08 1.3043299418313836e-07 -1.7484649106336292e-07 4.1581937892942733e-08 2.1595947430341766e-07 -9.0714848965944839e-08 4.2377994446951561e-08 2.9136324997125485e-07 -2.0960932545222022e-07 8.9987089779697271e-08 1.6781814338173717e-07 -1.4702827400014939e-07 -1.9178068910719048e-08 4.0964032166357356e-08 1.6369565258855800e-08 3.0585314902964456e-07 0.0000000000000000e+00 -1.5541567677246348e-07 0.0000000000000000e+00 8.8578779866566038e-09 -1.6666868418724334e-07 0.0000000000000000e+00 6.3828601071236335e-08 -8.3942488515731384e-08 0.0000000000000000e+00 7.4734359145622875e-08 -1.5572840084132622e-07 6.5981382135760214e-08 2.6227141347590077e-07 -7.9818306630841107e-08 7.3276474665817659e-08 2.5252916202589404e-07 -2.1674600247933995e-07 3.3242987029780124e-08 1.7940756436019001e-07 -1.4396377423508966e-08 2.6919769879896194e-07 0.0000000000000000e+00 -2.0474580253448948e-07 2.0891180341209292e-08 4.3402883420640137e-07 2.6867644109529465e-08 -5.1247280197230793e-08 3.1014434398457524e-07 