<?xml version="1.0"?>
<VTKFile type="UnstructuredGrid" version="0.1" byte_order="LittleEndian">
  <UnstructuredGrid>
    <Piece NumberOfPoints="321" NumberOfCells="159">
      <Points>
        <DataArray type="Float64" NumberOfComponents="3" format="ascii">
          0.0000000000000000e+00 0.0000000000000000e+00 0.0000000000000000e+00 1.0000000000000000e+00 0.0000000000000000e+00 0.0000000000000000e+00 2.0000000000000000e+00 0.0000000000000000e+00 0.0000000000000000e+00 3.0000000000000000e+00 0.0000000000000000e+00 0.0000000000000000e+00 4.0000000000000000e+00 0.0000000000000000e+00 0.0000000000000000e+00 5.0000000000000000e+00 0.0000000000000000e+00 0.0000000000000000e+00 6.0000000000000000e+00 0.0000000000000000e+00 0.0000000000000000e+00 0.0000000000000000e+00 1.0000000000000000e+00 0.0000000000000000e+00 1.0000000000000000e+00 1.0000000000000000e+00 0.0000000000000000e+00 2.0000000000000000e+00 1.0000000000000000e+00 0.0000000000000000e+00 3.0000000000000000e+00 1.0000000000000000e+00 0.0000000000000000e+00 4.0000000000000000e+00 1.0000000000000000e+00 0.0000000000000000e+00 5.0000000000000000e+00 1.0000000000000000e+00 0.0000000000000000e+00 6.0000000000000000e+00 1.0000000000000000e+00 0.0000000000000000e+00 0.0000000000000000e+00 2.0000000000000000e+00 0.0000000000000000e+00 1.0000000000000000e+00 2.0000000000000000e+00 0.0000000000000000e+00 2.0000000000000000e+00 2.0000000000000000e+00 0.0000000000000000e+00 3.0000000000000000e+00 2.0000000000000000e+00 0.0000000000000000e+00 4.0000000000000000e+00 2.0000000000000000e+00 0.0000000000000000e+00 5.0000000000000000e+00 2.0000000000000000e+00 0.0000000000000000e+00 6.0000000000000000e+00 2.0000000000000000e+00 0.0000000000000000e+00 0.0000000000000000e+00 3.0000000000000000e+00 0.0000000000000000e+00 1.0000000000000000e+00 3.0000000000000000e+00 0.0000000000000000e+00 2.0000000000000000e+00 3.0000000000000000e+00 0.0000000000000000e+00 3.0000000000000000e+00 3.0000000000000000e+00 0.0000000000000000e+00 4.0000000000000000e+00 3.0000000000000000e+00 0.0000000000000000e+00 5.0000000000000000e+00 3.0000000000000000e+00 0.0000000000000000e+00 6.0000000000000000e+00 3.0000000000000000e+00 0.0000000000000000e+00 0.0000000000000000e+00 4.0000000000000000e+00 0.0000000000000000e+00 1.0000000000000000e+00 4.0000000000000000e+00 0.0000000000000000e+00 2.0000000000000000e+00 4.0000000000000000e+00 0.0000000000000000e+00 3.0000000000000000e+00 4.0000000000000000e+00 0.0000000000000000e+00 4.0000000000000000e+00 4.0000000000000000e+00 0.0000000000000000e+00 5.0000000000000000e+00 4.0000000000000000e+00 0.0000000000000000e+00 6.0000000000000000e+00 4.0000000000000000e+00 0.0000000000000000e+00 0.0000000000000000e+00 5.0000000000000000e+00 0.0000000000000000e+00 1.0000000000000000e+00 5.0000000000000000e+00 0.0000000000000000e+00 2.0000000000000000e+00 5.0000000000000000e+00 0.0000000000000000e+00 3.0000000000000000e+00 5.0000000000000000e+00 0.0000000000000000e+00 4.0000000000000000e+00 5.0000000000000000e+00 0.0000000000000000e+00 5.0000000000000000e+00 5.0000000000000000e+00 0.0000000000000000e+00 6.0000000000000000e+00 5.0000000000000000e+00 0.0000000000000000e+00 0.0000000000000000e+00 6.0000000000000000e+00 0.0000000000000000e+00 1.0000000000000000e+00 6.0000000000000000e+00 0.0000000000000000e+00 2.0000000000000000e+00 6.0000000000000000e+00 0.0000000000000000e+00 3.0000000000000000e+00 6.0000000000000000e+00 0.0000000000000000e+00 4.0000000000000000e+00 6.0000000000000000e+00 0.0000000000000000e+00 5.0000000000000000e+00 6.0000000000000000e+00 0.0000000000000000e+00 6.0000000000000000e+00 6.0000000000000000e+00 0.0000000000000000e+00 0.0000000000000000e+00 0.0000000000000000e+00 1.0000000000000000e+00 1.0000000000000000e+00 0.0000000000000000e+00 1.0000000000000000e+00 2.0000000000000000e+00 0.0000000000000000e+00 1.0000000000000000e+00 3.0000000000000000e+00 0.0000000000000000e+00 1.0000000000000000e+00 4.0000000000000000e+00 0.0000000000000000e+00 1.0000000000000000e+00 5.0000000000000000e+00 0.0000000000000000e+00 1.0000000000000000e+00 6.0000000000000000e+00 0.0000000000000000e+00 1.0000000000000000e+00 0.0000000000000000e+00 1.0000000000000000e+00 1.0000000000000000e+00 1.0000000000000000e+00 1.0000000000000000e+00 1.0000000000000000e+00 2.0000000000000000e+00 1.0000000000000000e+00 1.0000000000000000e+00 3.0000000000000000e+00 1.0000000000000000e+00 1.0000000000000000e+00 4.0000000000000000e+00 1.0000000000000000e+00 1.0000000000000000e+00 5.0000000000000000e+00 1.0000000000000000e+00 1.0000000000000000e+00 6.0000000000000000e+00 1.0000000000000000e+00 1.0000000000000000e+00 0.0000000000000000e+00 2.0000000000000000e+00 1.0000000000000000e+00 1.0000000000000000e+00 2.0000000000000000e+00 1.0000000000000000e+00 2.0000000000000000e+00 2.0000000000000000e+00 1.0000000000000000e+00 3.0000000000000000e+00 2.0000000000000000e+00 1.0000000000000000e+00 4.0000000000000000e+00 2.0000000000000000e+00 1.0000000000000000e+00 5.0000000000000000e+00 2.0000000000000000e+00 1.0000000000000000e+00 6.0000000000000000e+00 2.0000000000000000e+00 1.0000000000000000e+00 0.0000000000000000e+00 3.0000000000000000e+00 1.0000000000000000e+00 1.0000000000000000e+00 3.0000000000000000e+00 1.0000000000000000e+00 2.0000000000000000e+00 3.0000000000000000e+00 1.0000000000000000e+00 3.0000000000000000e+00 3.0000000000000000e+00 1.0000000000000000e+00 4.0000000000000000e+00 3.0000000000000000e+00 1.0000000000000000e+00 5.0000000000000000e+00 3.0000000000000000e+00 1.0000000000000000e+00 6.0000000000000000e+00 3.0000000000000000e+00 1.0000000000000000e+00 0.0000000000000000e+00 4.0000000000000000e+00 1.0000000000000000e+00 1.0000000000000000e+00 4.0000000000000000e+00 1.0000000000000000e+00 2.0000000000000000e+00 4.0000000000000000e+00 1.0000000000000000e+00 3.0000000000000000e+00 4.0000000000000000e+00 1.0000000000000000e+00 4.0000000000000000e+00 4.0000000000000000e+00 1.0000000000000000e+00 5.0000000000000000e+00 4.0000000000000000e+00 1.0000000000000000e+00 6.0000000000000000e+00 4.0000000000000000e+00 1.0000000000000000e+00 0.0000000000000000e+00 5.0000000000000000e+00 1.0000000000000000e+00 1.0000000000000000e+00 5.0000000000000000e+00 1.0000000000000000e+00 2.0000000000000000e+00 5.0000000000000000e+00 1.0000000000000000e+00 3.0000000000000000e+00 5.0000000000000000e+00 1.0000000000000000e+00 4.0000000000000000e+00 5.0000000000000000e+00 1.0000000000000000e+00 5.0000000000000000e+00 5.0000000000000000e+00 1.0000000000000000e+00 6.0000000000000000e+00 5.0000000000000000e+00 1.0000000000000000e+00 0.0000000000000000e+00 6.0000000000000000e+00 1.0000000000000000e+00 1.0000000000000000e+00 6.0000000000000000e+00 1.0000000000000000e+00 2.0000000000000000e+00 6.0000000000000000e+00 1.0000000000000000e+00 3.0000000000000000e+00 6.0000000000000000e+00 1.0000000000000000e+00 4.0000000000000000e+00 6.0000000000000000e+00 1.0000000000000000e+00 5.0000000000000000e+00 6.0000000000000000e+00 1.0000000000000000e+00 6.0000000000000000e+00 6.0000000000000000e+00 1.0000000000000000e+00 0.0000000000000000e+00 0.0000000000000000e+00 2.0000000000000000e+00 1.0000000000000000e+00 0.0000000000000000e+00 2.0000000000000000e+00 2.0000000000000000e+00 0.0000000000000000e+00 2.0000000000000000e+00 3.0000000000000000e+00 0.0000000000000000e+00 2.0000000000000000e+00 4.0000000000000000e+00 0.0000000000000000e+00 2.0000000000000000e+00 5.0000000000000000e+00 0.0000000000000000e+00 2.0000000000000000e+00 6.0000000000000000e+00 0.0000000000000000e+00 2.0000000000000000e+00 0.0000000000000000e+00 1.0000000000000000e+00 2.0000000000000000e+00 1.0000000000000000e+00 1.0000000000000000e+00 2.0000000000000000e+00 2.0000000000000000e+00 1.0000000000000000e+00 2.0000000000000000e+00 3.0000000000000000e+00 1.0000000000000000e+00 2.0000000000000000e+00 4.0000000000000000e+00 1.0000000000000000e+00 2.0000000000000000e+00 5.0000000000000000e+00 1.0000000000000000e+00 2.0000000000000000e+00 6.0000000000000000e+00 1.0000000000000000e+00 2.0000000000000000e+00 0.0000000000000000e+00 2.0000000000000000e+00 2.0000000000000000e+00 1.0000000000000000e+00 2.0000000000000000e+00 2.0000000000000000e+00 2.0000000000000000e+00 2.0000000000000000e+00 2.0000000000000000e+00 3.0000000000000000e+00 2.0000000000000000e+00 2.0000000000000000e+00 4.0000000000000000e+00 2.0000000000000000e+00 2.0000000000000000e+00 5.0000000000000000e+00 2.0000000000000000e+00 2.0000000000000000e+00 6.0000000000000000e+00 2.0000000000000000e+00 2.0000000000000000e+00 0.0000000000000000e+00 3.0000000000000000e+00 2.0000000000000000e+00 1.0000000000000000e+00 3.0000000000000000e+00 2.0000000000000000e+00 2.0000000000000000e+00 3.0000000000000000e+00 2.0000000000000000e+00 3.0000000000000000e+00 3.0000000000000000e+00 2.0000000000000000e+00 0.0000000000000000e+00 4.0000000000000000e+00 2.0000000000000000e+00 1.0000000000000000e+00 4.0000000000000000e+00 2.0000000000000000e+00 2.0000000000000000e+00 4.0000000000000000e+00 2.0000000000000000e+00 3.0000000000000000e+00 4.0000000000000000e+00 2.0000000000000000e+00 0.0000000000000000e+00 5.0000000000000000e+00 2.0000000000000000e+00 1.0000000000000000e+00 5.0000000000000000e+00 2.0000000000000000e+00 2.0000000000000000e+00 5.0000000000000000e+00 2.0000000000000000e+00 3.0000000000000000e+00 5.0000000000000000e+00 2.0000000000000000e+00 5.0000000000000000e+00 5.0000000000000000e+00 2.0000000000000000e+00 6.0000000000000000e+00 5.0000000000000000e+00 2.0000000000000000e+00 0.0000000000000000e+00 6.0000000000000000e+00 2.0000000000000000e+00 1.0000000000000000e+00 6.0000000000000000e+00 2.0000000000000000e+00 2.0000000000000000e+00 6.0000000000000000e+00 2.0000000000000000e+00 3.0000000000000000e+00 6.0000000000000000e+00 2.0000000000000000e+00 5.0000000000000000e+00 6.0000000000000000e+00 2.0000000000000000e+00 6.0000000000000000e+00 6.0000000000000000e+00 2.0000000000000000e+00 0.0000000000000000e+00 0.0000000000000000e+00 3.0000000000000000e+00 1.0000000000000000e+00 0.0000000000000000e+00 3.0000000000000000e+00 2.0
[...]
      <PointData>
        <DataArray type="Float64" Name="A" NumberOfComponents="3" format="ascii">
          0.0000000000000000e+00 0.0000000000000000e+00 0.0000000000000000e+00 1.8517175348620185e-08 0.0000000000000000e+00 0.0000000000000000e+00 1.2238820623622360e-08 0.0000000000000000e+00 0.0000000000000000e+00 -6.9141385949933465e-09 0.0000000000000000e+00 0.0000000000000000e+00 -2.2038816993585897e-08 0.0000000000000000e+00 0.0000000000000000e+00 1.7275413100037440e-08 0.0000000000000000e+00 0.0000000000000000e+00 5.9803326735163864e-09 0.0000000000000000e+00 0.0000000000000000e+00 0.0000000000000000e+00 1.2040137775670701e-08 0.0000000000000000e+00 9.5764791652186432e-09 1.3093153228282972e-08 0.0000000000000000e+00 3.4173328611331044e-09 2.5371710066224296e-08 0.0000000000000000e+00 -6.6757199768119335e-09 1.5258788010896751e-08 0.0000000000000000e+00 5.0465267520394264e-09 -9.9341068704461577e-10 0.0000000000000000e+00 2.0345051865433561e-08 2.3047128649977822e-08 0.0000000000000000e+00 3.6080678000871558e-08 1.0490417423625331e-08 0.0000000000000000e+00 0.0000000000000000e+00 -1.4056761976632970e-08 0.0000000000000000e+00 2.5113424229061820e-08 1.7484028669301210e-09 0.0000000000000000e+00 3.3378599884059668e-09 6.3578289299925927e-09 0.0000000000000000e+00 1.8517175348620185e-08 4.1246412507689456e-08 0.0000000000000000e+00 1.7007192099072199e-08 -7.9472854963569262e-09 0.0000000000000000e+00 2.0345051865433561e-08 1.1920928688624599e-09 0.0000000000000000e+00 3.5285950161778601e-08 1.0172525932716781e-08 0.0000000000000000e+00 0.0000000000000000e+00 1.3430913270440215e-08 0.0000000000000000e+00 1.2238820623622360e-08 -1.1920928133513087e-10 0.0000000000000000e+00 -5.5631002027212162e-09 -1.6013780523849164e-08 0.0000000000000000e+00 1.5735626135437997e-08 1.3589859015894490e-08 0.0000000000000000e+00 1.8437702919982257e-08 5.4041544572669409e-09 0.0000000000000000e+00 4.6624077931767260e-09 3.5762787176096822e-10 0.0000000000000000e+00 -6.6757199768119335e-09 2.3841858265427618e-08 0.0000000000000000e+00 0.0000000000000000e+00 3.5127005304502745e-08 0.0000000000000000e+00 6.3578287079479878e-10 5.7816502696539374e-09 0.0000000000000000e+00 2.2013981748614242e-08 -1.2140721317166481e-08 0.0000000000000000e+00 3.0338764389625794e-08 1.2954076034077389e-08 0.0000000000000000e+00 2.4053786518152265e-08 1.2927585224531413e-08 0.0000000000000000e+00 -9.1393786982862935e-10 3.6954879156780862e-09 0.0000000000000000e+00 -4.5299528572684267e-09 -2.6384988416339183e-08 0.0000000000000000e+00 0.0000000000000000e+00 2.3821989714178926e-08 0.0000000000000000e+00 6.3975651443115567e-09 1.2775261737374422e-08 0.0000000000000000e+00 -9.3380609911264401e-09 9.3380609911264401e-09 0.0000000000000000e+00 5.2452087118126656e-09 -2.5431314831791951e-09 0.0000000000000000e+00 1.7086664527710127e-08 1.8596649553614952e-08 0.0000000000000000e+00 2.1537145400429836e-08 1.6291936688617170e-08 0.0000000000000000e+00 -7.8678130677189984e-09 -1.1603037641805258e-08 0.0000000000000000e+00 0.0000000000000000e+00 5.0030649845211883e-08 0.0000000000000000e+00 -1.1126199961353223e-09 1.4146168680895244e-08 0.0000000000000000e+00 3.0835469289058892e-08 1.1126199961353223e-09 0.0000000000000000e+00 1.2000401561351737e-08 1.9550324026340604e-08 0.0000000000000000e+00 2.1934509319976314e-08 5.4041544572669409e-09 0.0000000000000000e+00 -1.4543533488620142e-08 2.2888183792701966e-08 0.0000000000000000e+00 1.6530353974530954e-08 -2.1755695023273347e-09 0.0000000000000000e+00 0.0000000000000000e+00 0.0000000000000000e+00 -7.6293940054483755e-09 -8.2651769872654768e-09 0.0000000000000000e+00 3.4968056894513211e-08 -2.2232532259636173e-08 0.0000000000000000e+00 -9.5367429508996793e-09 1.7384687467369986e-08 0.0000000000000000e+00 1.3351439953623867e-08 1.8239020960209018e-08 0.0000000000000000e+00 2.5431315719970371e-08 2.3126601078615749e-08 0.0000000000000000e+00 -1.6212462483622403e-08 -1.6609828179525721e-08 0.0000000000000000e+00 -1.1444091896350983e-08 0.0000000000000000e+00 2.0186107008157705e-08 2.2888183792701966e-08 1.9893049429953180e-09 1.5132284758578862e-08 2.3523966774519067e-08 3.0597051559055899e-09 -8.7420143346506052e-10 1.9073485901799359e-08 1.4742215448393381e-08 7.0333481261286579e-09 6.6757199768119335e-09 1.4066696252257316e-08 1.3033548462715316e-08 -9.5367425068104694e-10 7.5499215768104477e-09 5.8809916936297668e-09 -8.5830684781740274e-09 3.1153359003610603e-08 -1.5298525113394135e-08 1.9073485013620939e-09 0.0000000000000000e+00 6.9538752534015202e-10 -8.9009599690825780e-09 7.1277219682031046e-09 1.9881873924987303e-08 1.3987222935440968e-08 7.4605148725481740e-09 3.5762787176096822e-10 -3.1789143539739939e-10 1.5236082617775537e-08 -2.0890009722052127e-09 3.6330449759702788e-10 2.4239222184974096e-08 1.1709001768167582e-08 7.6293948936267952e-09 1.5338262215891518e-08 1.0410944994987403e-08 -8.0532496227192496e-09 -2.1192763099975309e-08 2.6067098701787472e-08 7.6293948936267952e-09 0.0000000000000000e+00 2.9802322831784522e-09 -9.8546344418082299e-09 2.2649764286342133e-09 1.7126401630207511e-08 -5.0862629663583903e-09 7.6293940054483755e-09 2.7596950502584150e-08 -6.1988831845383174e-09 9.5433660973753831e-09 4.5034620477224507e-10 4.8743356018121631e-09 8.9009599690825780e-09 1.0596381549987655e-08 -4.2385526199950618e-09 8.6890326045363508e-09 -9.5367429508996793e-09 -4.2385526199950618e-09 1.6530353974530954e-08 1.9619861291175766e-08 1.5894570992713852e-08 0.0000000000000000e+00 1.0977189157657108e-09 9.5367425068104694e-10 -2.7815499903383056e-10 1.5298525113394135e-08 -1.0331471678171056e-08 1.6689299942029834e-09 3.3140182154056674e-08 -1.4146168680895244e-08 6.9936119118096940e-09 6.0929195022652038e-09 4.2385525644839106e-10 2.6702881683604573e-08 2.7550590697700272e-09 1.3775295570894741e-08 -8.2121953681735249e-09 2.1507343461735218e-08 4.8213535386310014e-09 -2.0662943356342112e-08 -2.2252399922706445e-09 2.7179718031788980e-08 0.0000000000000000e+00 1.9550324026340604e-08 -3.1789141985427705e-08 -3.5365421702238109e-09 3.4034250973036251e-08 -1.5417734644529446e-08 1.4543533488620142e-08 2.3682911631794923e-08 2.3841857377249198e-09 5.9339737568109285e-09 1.1444091896350983e-08 -1.5258789787253590e-08 1.6291935578394146e-09 1.2715657415895976e-09 -2.7418137094059603e-08 -2.2649764286342133e-09 2.0118553933912153e-08 1.0742620126791280e-08 -1.1417601086805007e-08 1.2609693733622862e-08 -1.2378725600115104e-08 0.0000000000000000e+00 1.0358790270004192e-08 -2.0345051865433561e-08 1.5020370724982968e-08 1.7762184612024612e-08 -2.3523966774519067e-08 7.2320300859018971e-09 1.1920929132713809e-08 -2.2888183792701966e-08 -8.6890326045363508e-09 3.6451552887228900e-08 1.6954210257935642e-09 -3.1729538108038469e-08 -1.2397766369076635e-08 1.4940898296345040e-08 -6.3578289299925927e-09 3.7431718169500527e-08 8.4201907668557396e-09 -9.1791152456721647e-09 1.1265277599648016e-08 -1.9350398616779785e-08 0.0000000000000000e+00 0.0000000000000000e+00 -1.1444091896350983e-08 1.9888082292141007e-08 0.0000000000000000e+00 7.6293940054483755e-09 -2.8461217826958318e-09 0.0000000000000000e+00 3.1789143539739939e-10 -1.6808510139298960e-08 0.0000000000000000e+00 7.6293940054483755e-09 -5.3644177988587671e-09 0.0000000000000000e+00 -1.2715657415895976e-09 1.4285246763279247e-08 0.0000000000000000e+00 -8.2651769872654768e-09 2.8530756424061110e-08 0.0000000000000000e+00 1.9709268883616460e-08 0.0000000000000000e+00 -5.7679909737373691e-09 -2.2252400810884865e-08 2.9683112856560001e-08 1.0778506975839264e-09 -3.4968057338602421e-09 3.8703280580421051e-08 6.1988831845383174e-09 -3.1789143539739939e-10 1.1126200405442432e-08 -1.5318393664642826e-08 2.2411345668160720e-08 6.0002007806758684e-09 -1.6738971098106958e-08 -7.9472854963569262e-09 1.1920929132713809e-08 3.8544336611323615e-09 -2.5749205434522082e-08 3.0597050226788269e-08 6.3578289299925927e-09 -2.5431314831791951e-09 0.0000000000000000e+00 3.8941698754513254e-09 -1.4305114426349519e-08 -1.0093053504078853e-08 1.1920928688624599e-09 8.9009599690825780e-09 -1.3760157457909372e-08 1.8857774009006789e-08 -9.0826119958364870e-09 9.8228456479887427e-09 -3.6875407172232144e-09 -3.5603842096776361e-09 -1.5656153706800069e-08 2.9673179469114075e-08 -1.6530353974530954e-08 2.2570292301793415e-08 -6.2783560572654551e-09 -2.9881796592690080e-08 6.1909354087674728e-08 2.8977790833550898e-08 -1.0172525932716781e-08 0.0000000000000000e+00 2.5510788148608299e-08 -5.0862631439940742e-08 -6.9141385949933465e-09 7.9075492820379623e-09 -3.0199686307241791e-08 4.6094257299955643e-09 1.2609693733622862e-08 1.1020236279080109e-08 -1.1444091896350983e-08 -2.3365020140886372e-08 3.8544335723145196e-08 0.0000000000000000e+00 2.7179718031788980e-08 -1.7166136956348055e-08 -9.5764791652186432e-09 1.1106331854193741e-08 -1.1126200405442432e-08 6.5621876821353453e-09 9.8092218792089625e-09 -1.8165224879851394e-09 9.7486712036243262e-09 -3.7617155612679198e-08 2.9246011834516139e-08 0.0000000000000000e+00 3.2509366310051746e-09 2.2252399922706445e-09 3.9736429424674924e-11 4.8478443481769773e-09 -2.6384988416339183e-08 8.7817513261256863e-09 7.1525572131747595e-09 -1.0808308914533882e-08 1.9152958330437286e-08 -4.2617318563031859e-09 2.2252400810884865e-08 4.1762987734728085e-08 2.7709329941671967e-08 -2.0389755661653908e-08 9.5963477164673350e-09 1.0927517918313256e-10 1.8676121982252880e-08 0.0000000000000000e+00 1.2318293052260287e-08 -1.3987222935440968e-08 -5.5631002027212162e-09 5.6743619580856830e-08 3.1789144649962964e-09 1.7245611161342822e-08 4.2120613663598760e-09 -5.0862629663583903e-09 1.8954276370664047e-08 2.9246011834516139e-08 -2.0345051865433561e-08 -1.8755594410890808e-08 4.1345753487576076e-08 1.5795230012827233e-08 2.6270747355283675e-08 -2.9320517569431104e-08 -1.2959042727800352e-08 0.0000000000000000e+00 0.0000000000000000e+00 -3.8146970027241878e-09 -1.9113223004296742e-08 0.0000000000000000e+00 -1.9073485901799359e-08 -1.3947486721122004e-08 0.0000000000000000e+00 -5.7220459481754915e-09 2.1581847420293343e-08 0.0000000000000000e+00 -1.4623005917258070e-08 2.5818744475714084e-08 0.0000000000000000e+00 -1.5894570992713852e-08 2.5823712945793886e-08 0.0000000000000000e+00 8.5830684781740274e-09 3.0487775859455724e-08 0.0000000000000000e+00 2.6702879907247734e-08 0.0000000000000000e+00 -2.3365020140886372e-08 6.9936114677204841e-09 1.4702479234074417e-09 -4.7683712534052347e-10 -6.5167742313576582e-09 1.3053417013964008e-08 -9.2734895318358213e-09 -1.0172525932716781e-08 1.0967254659988157e-08 2.9007594104513146e-09 3.4968057338602421e-09 -5.5631002027212162e-09 -3.8941698754513254e-09 -2.8292337361790487e-08 1.6172727157481859e-08 -3.8196641405363607e-09 -1.5258788010896751e-08 6.5962471040847959e-09 5.0663948591989083e-09 -1.1761983387259534e-08 0.0000000000000000e+00 -2.0702680458839495e-08 -1.9391377392707909e-08 -1.5099843153620895e-08 2.5749205434522082e-08 -1.5894570992713852e-08 -4.4050669778528118e-09 -6.4940679500580245e-09 3.6330449759702788e-10 -1.4368692902166913e-08 7.6293948936267952e-09 -4.5776369361760771e-09 -3.6954879156780862e-09 2.3563702100659611e-08 -4.4504799845412890e-09 3.7193299107229905e-08 -7.1525574352193644e-10 3.8146971803598717e-08 2.0096699415717012e-08 1.1642773856124222e-08 1.3987222935440968e-08 0.0000000000000000e+00 1.6570091077028337e-08 3.2742818234510196e-08 1.0672069894468450e-09 7.0844379251866485e-09 -1.5985397894269227e-08 2.5749205434522082e-08 1.1126200405442432e-08 8.9009599690825780e-09 -1.3174576707353225e-10 5.1538766143721659e-08 -8.7751859112472630e-09 0.0000000000000000e+00 -1.4175971507768281e-08 1.9391377392707909e-08 -4.0326799677359304e-08 2.9518490762825422e-08 -1.5258788010896751e-08 6.1988831845383174e-09 2.8769175486331733e-08 -1.2715657415895976e-09 2.6384988416339183e-08 -2.5431315719970371e-08 -2.4159749756336169e-08 0.0000000000000000e+00 3.6279359960644797e-08 -2.2252399922706445e-09 -4.1723249855074585e-10 2.8729438383834349e-08 6.9538752534015202e-09 2.3160660944654410e-08 2.5249661916859623e-08 1.3078961913493004e-08 1.1973910751805761e-08 1.5894572769070692e-08 5.0862629663583903e-09 4.1163836783653096e-08 -2.4112871699344396e-08 -2.6125460905745967e-08 7.8541537718024301e-09 -1.2221435419235149e-08 5.5941441701179428e-08 0.0000000000000000e+00 8.9009599690825780e-09 1.3987222935440968e-08 2.5908152068154777e-08 4.8875810065851510e-09 2.1934509319976314e-08 8.7420142236283027e-09 2.1934509319976314e-08 4.7047933549038135e-08 -2.0662942468163692e-09 8.7221465605580306e-09 2.2888183792701966e-08 -3.3942360033734076e-08 9.9471462178257752e-09 -4.7923375490199760e-08 -8.5731350907281012e-09 -2.8654932648919385e-08 1.5201667480368997e-08 0.0000000000000000e+00 0.0000000000000000e+00 -2.2888183792701966e-08 1.1185805171010088e-08 0.0000000000000000e+00 2.0980834847250662e-08 4.0133794065866368e-09 0.0000000000000000e+00 3.3696490930879008e-08 2.4735927084407194e-08 0.0000000000000000e+00 -3.8146970027241878e-09 3.1928220067811708e-08 0.0000000000000000e+00 5.0862629663583903e-09 2.9285748937013523e-08 0.0000000000000000e+00 -4.1325884936327384e-09 3.9736427481784631e-09 0.0000000000000000e+00 -2.0345051865433561e-08 0.0000000000000000e+00 1.6371409117255098e-08 1.5258788010896751e-08 -3.6954879156780862e-09 1.3937552445497658e-08 3.9736427481784631e-09 1.2060006326919392e-08 3.0199687195420211e-09 3.1789141985427705e-08 -1.0568648178832518e-08 6.1392784189706617e-09 1.5258788010896751e-08 3.0994415922691587e-09 -5.3246815845398032e-09 2.5431314831791951e-09 2.4716058533158503e-08 1.3291836076234631e-08 -2.2570292301793415e-08 -1.0490417423625331e-08 2.0712613846285421e-08 -2.0980834847250662e-08 0.0000000000000000e+00 -1.8080075214754743e-09 2.3523966774519067e-08 -2.1258989235661829e-08 2.7815499903383056e-10 -6.6757199768119335e-09 1.2060006326919392e-08 2.1378198766797141e-08 1.9073485013620939e-09 1.5395027475051393e-08 1.1989047976612710e-08 2.1798269855821673e-08 2.4159749756336169e-09 -4.0690104619045542e-09 1.3732909920349812e-08 -1.6490618648390409e-08 -1.5338262215891518e-08 9.5367429508996793e-09 9.1983629602054862e-09 -3.1630197128151849e-08 8.9009599690825780e-09 0.0000000000000000e+00 -3.0199687195420211e-09 8.9009599690825780e-09 -1.6030810456868494e-08 4.8137844821383169e-09 1.5803745867515318e-08 -9.6321111087149802e-09 -8.5194908905350530e-09 3.5603839876330312e-08 2.7126736412697028e-08 -2.3735895027243714e-08 3.0517579574507181e-08 -1.0307055653413499e-08 6.9528138801899786e-09 1.7914919325789924e-08 0.0000000000000000e+00 -1.1781851050329806e-08 2.3523966774519067e-08 -1.6000536007254595e-08 2.1523899107478428e-08 1.2715657859985185e-08 1.1126199961353223e-09 5.4200491206302104e-08 -5.0862629663583903e-09 0.0000000000000000e+00 8.9208285203312698e-09 2.7338662889064835e-08 -3.7919907214245541e-09 2.3206075283610517e-08 3.0517576021793502e-08 -5.7220461702200964e-10 3.6493936761416990e-08 -1.6784667877800530e-08 -2.9669868784054643e-09 4.0902033759948608e-08 -8.4771051289678212e-10 -9.8113002167110608e-09 8.5817903894280789e-09 6.7489750676941185e-08 -3.6849332474275798e-08 2.8158540388290021e-08 -6.0834615567273431e-08 7.2916350291052368e-08 4.4368206886247208e-09 2.2170443259028616e-08 0.0000000000000000e+00 -2.9404958468148834e-08 2.4795532738153270e-08 3.1789143539739939e-10 -2.6226043559063328e-09 4.6094257299955643e-08 2.6305515987701256e-08 1.7007192099072199e-08 1.1444091896350983e-08 2.3312038521794420e-08 1.8649631172706904e-08 3.3484564454511201e-08 3.2284816597893951e-08 5.2262901562016850e-08 -5.2241571069089332e-09 6.0242911104069208e-08 -1.0696550312161435e-08 -3.2150186513035806e-08 2.1715958808954383e-08 -4.2602419370041389e-08 1.5330810398950234e-08 0.0000000000000000e+00 0.0000000000000000e+00 3.8146970027241878e-09 2.3245811942018690e-09 0.0000000000000000e+00 -2.4795532738153270e-08 5.3246815845398032e-09 0.0000000000000000e+00 -1.7801919938165156e-08 2.6663144581107190e-08 0.0000000000000000e+00 5.0862629663583903e-09 3.0914943494053659e-08 0.0000000000000000e+00 -5.7220459481754915e-09 -2.2252399922706445e-09 0.0000000000000000e+00 -5.1816304136309554e-08 1.5099843153620895e-08 0.0000000000000000e+00 -1.9073485901799359e-08 0.0000000000000000e+00 -7.2717667443100709e-09 -4.5776367585403932e-08 2.2947788114180412e-09 1.0550022189192987e-08 -1.2715657859985185e-08 -9.0003009489691976e-09 6.1194103118111798e-09 4.7683714754498396e-09 7.6293940054483755e-09 3.2464662069742189e-08 -6.3578287079479878e-10 1.4672676407201379e-08 1.0808308914533882e-08 -2.4159749756336169e-08 -6.0399374390840421e-09 3.0994415922691587e-09 -2.6702879907247734e-08 -1.8914541044523503e-08 2.4000803122703473e-08 -4.9591065476306539e-08 0.0000000000000000e+00 1.3192494208169592e-08 3.8146970027241878e-09 1.0093053504078853e-08 -5.7220459481754915e-09 1.0172525932716781e-08 2.6702879907247734e-08 -5.3147475309600622e-10 -3.8146970027241878e-09 3.7670133679057471e-08 1.6013780523849164e-08 -2.9246011834516139e-08 -4.9954369529814358e-09 4.9046109396044812e-09 -1.1625743923104892e-08 1.3351440841802287e-08 -3.7723118850863102e-08 -1.0172525932716781e-08 1.3139512589077640e-08 -1.1232164531804756e-08 -9.3248155863534521e-09 0.0000000000000000e+00 1.4834934169982716e-08 1.6954210479980247e-08 -2.2252399922706445e-09 3.0093723069057887e-08 -2.2040472558160218e-08 1.3907750506803040e-08 2.7550590697700272e-09 -2.5431315719970371e-08 2.7603572760881434e-08 -1.6106499245438499e-08 9.3248155863534521e-09 -1.1444092340440193e-09 -2.9754639641055292e-08 2.5177001816700795e-08 -4.2915342390870137e-09 -8.8612237547636141e-09 1.6689300608163649e-08 2.7974445870881937e-08 -1.3550122801575526e-08 3.9418537767232920e-08 0.0000000000000000e+00 4.3233235658135527e-08 -2.8822157105423685e-08 -1.6530353974530954e-08 3.6239622858147413e-08 -6.3578289299925927e-09 -5.2611031975402511e-08 6.6757199768119335e-09 -1.7801919938165156e-08 2.9563903325424690e-08 2.7974445870881937e-08 3.8146971803598717e-08 -2.1828546081792410e-08 -4.4504799845412890e-09 4.9498346754717204e-08 2.0424524294071489e-08 3.4411748117690877e-08 3.5345554039167837e-08 4.1007993445418833e-08 5.0862629663583903e-09 1.5258788010896751e-08 0.0000000000000000e+00 1.5417734644529446e-08 -3.8146970027241878e-09 -8.0532496227192496e-09 -1.2424257178622611e-08 -1.6954210479980247e-08 -3.1789144649962964e-09 -2.0404655742822797e-08 -3.8146971803598717e-08 1.4623005917258070e-08 -1.8209219021514400e-08 3.1789144649962964e-09 1.7225742610094130e-08 -9.1989837969208565e-09 3.7113824902235137e-08 2.4795532294064060e-09 1.3168652834849581e-08 -1.3298789625082463e-08 4.6292942812442561e-09 2.0636452546796136e-08 -3.9663579087800827e-08 0.0000000000000000e+00 1.8835066839528736e-08 -2.2888183792701966e-08 -8.9009599690825780e-09 2.9166539405878211e-08 -7.6293940054483755e-09 1.6371409117255098e-08 3.9339063562238152e-08 -1.0172525932716781e-08 2.9563903325424690e-08 2.1696090257705691e-08 -1.3351439953623867e-08 1.2715657415895976e-09 2.2676255539977319e-08 1.4834934169982716e-08 1.3457404079986190e-08 -1.0172525932716781e-08 5.3627622342844461e-09 3.5082301508282399e-08 -2.2868315241453274e-08 -2.9166539405878211e-08 0.0000000000000000e+00 0.0000000000000000e+00 0.0000000000000000e+00 -4.2955079493367521e-08 0.0000000000000000e+00 0.0000000000000000e+00 2.6981036072015741e-08 0.0000000000000000e+00 0.0000000000000000e+00 3.1789143539739939e-10 0.0000000000000000e+00 0.0000000000000000e+00 3.1709671333146616e-08 0.0000000000000000e+00 0.0000000000000000e+00 -5.3429353386036382e-08 0.0000000000000000e+00 0.0000000000000000e+00 2.6712815071050500e-08 0.0000000000000000e+00 0.0000000000000000e+00 0.0000000000000000e+00 -2.7815501013606081e-09 0.0000000000000000e+00 1.7454226508561987e-08 5.0067900936312526e-09 0.0000000000000000e+00 1.0152657381468089e-08 7.9472861624907409e-10 0.0000000000000000e+00 3.6557514793145174e-09 -1.6689300608163649e-08 0.0000000000000000e+00 2.4000803122703473e-08 -2.6305515987701256e-08 0.0000000000000000e+00 -1.2556712114530910e-08 1.6