<?xml version="1.0"?>
<VTKFile type="UnstructuredGrid" version="0.1" byte_order="LittleEndian">
  <UnstructuredGrid>
    <Piece NumberOfPoints="1963" NumberOfCells="1846">
      <Points>
        <DataArray type="Float64" NumberOfComponents="3" format="ascii">
          9.9965728819370270e-02 -2.6176949031651020e-03 0.0000000000000000e+00 1.0000000149011612e-01 0.0000000000000000e+00 0.0000000000000000e+00 9.9965728819370270e-02 2.6176949031651020e-03 0.0000000000000000e+00 9.9862955510616302e-02 5.2335956133902073e-03 0.0000000000000000e+00 9.9691733717918396e-02 7.8459093347191811e-03 0.0000000000000000e+00 9.9452190101146698e-02 1.0452846065163612e-02 0.0000000000000000e+00 9.9144488573074341e-02 1.3052619062364101e-02 0.0000000000000000e+00 9.8768837749958038e-02 1.5643445774912834e-02 0.0000000000000000e+00 9.8325490951538086e-02 1.8223552033305168e-02 0.0000000000000000e+00 9.7814761102199554e-02 2.0791169255971909e-02 0.0000000000000000e+00 9.7236990928649902e-02 2.3344537243247032e-02 0.0000000000000000e+00 8.9106656610965729e-02 2.3876056075096130e-02 0.0000000000000000e+00 7.7304840087890625e-02 2.2898737341165543e-02 0.0000000000000000e+00 6.5622895956039429e-02 2.1322172135114670e-02 0.0000000000000000e+00 5.4084055125713348e-02 1.9152168184518814e-02 0.0000000000000000e+00 4.2711306363344193e-02 1.6395334154367447e-02 0.0000000000000000e+00 3.5107422620058060e-02 1.4541970565915108e-02 0.0000000000000000e+00 3.4714728593826294e-02 1.5455992892384529e-02 0.0000000000000000e+00 3.4298241138458252e-02 1.6359422355890274e-02 0.0000000000000000e+00 3.3858247101306915e-02 1.7251638695597649e-02 0.0000000000000000e+00 3.3395051956176758e-02 1.8132032826542854e-02 0.0000000000000000e+00 3.2908964902162552e-02 1.8999999389052391e-02 0.0000000000000000e+00 3.2400324940681458e-02 1.9854946061968803e-02 0.0000000000000000e+00 3.1869482249021530e-02 2.0696284249424934e-02 0.0000000000000000e+00 3.1316794455051422e-02 2.1523436531424522e-02 0.0000000000000000e+00 3.0742645263671875e-02 2.2335840389132500e-02 0.0000000000000000e+00 3.0147427693009377e-02 2.3132935166358948e-02 0.0000000000000000e+00 2.9531545937061310e-02 2.3914175108075142e-02 0.0000000000000000e+00 2.8895426541566849e-02 2.4679025635123253e-02 0.0000000000000000e+00 2.8239503502845764e-02 2.5426963344216347e-02 0.0000000000000000e+00 2.7564225718379021e-02 2.6157474145293236e-02 0.0000000000000000e+00 2.6870056986808777e-02 2.6870056986808777e-02 0.0000000000000000e+00 2.6157474145293236e-02 2.7564225718379021e-02 0.0000000000000000e+00 2.5426963344216347e-02 2.8239503502845764e-02 0.0000000000000000e+00 2.4679025635123253e-02 2.8895426541566849e-02 0.0000000000000000e+00 2.3914175108075142e-02 2.9531545937061310e-02 0.0000000000000000e+00 2.3132935166358948e-02 3.0147427693009377e-02 0.0000000000000000e+00 2.2335840389132500e-02 3.0742645263671875e-02 0.0000000000000000e+00 2.1523436531424522e-02 3.1316794455051422e-02 0.0000000000000000e+00 2.0696284249424934e-02 3.1869482249021530e-02 0.0000000000000000e+00 1.9854946061968803e-02 3.2400324940681458e-02 0.0000000000000000e+00 1.8999999389052391e-02 3.2908964902162552e-02 0.0000000000000000e+00 1.8132032826542854e-02 3.3395051956176758e-02 0.0000000000000000e+00 1.7251638695597649e-02 3.3858247101306915e-02 0.0000000000000000e+00 1.6359422355890274e-02 3.4298241138458252e-02 0.0000000000000000e+00 1.5455992892384529e-02 3.4714728593826294e-02 0.0000000000000000e+00 1.4541970565915108e-02 3.5107422620058060e-02 0.0000000000000000e+00 1.3617982156574726e-02 3.5476054996252060e-02 0.0000000000000000e+00 1.2684660963714123e-02 3.5820376127958298e-02 0.0000000000000000e+00 1.1742645874619484e-02 3.6140147596597672e-02 0.0000000000000000e+00 1.0792583227157593e-02 3.6435149610042572e-02 0.0000000000000000e+00 9.8351240158081055e-03 3.6705181002616882e-02 0.0000000000000000e+00 8.8709238916635513e-03 3.6950055509805679e-02 0.0000000000000000e+00 7.9006440937519073e-03 3.7169609218835831e-02 0.0000000000000000e+00 6.9249500520527363e-03 3.7363685667514801e-02 0.0000000000000000e+00 5.9445095248520374e-03 3.7532158195972443e-02 0.0000000000000000e+00 4.9599953927099705e-03 3.7674903869628906e-02 0.0000000000000000e+00 3.9720814675092697e-03 3.7791833281517029e-02 0.0000000000000000e+00 2.9814457520842552e-03 3.7882857024669647e-02 0.0000000000000000e+00 1.9887662492692471e-03 3.7947922945022583e-02 0.0000000000000000e+00 9.9472398869693279e-04 3.7986978888511658e-02 0.0000000000000000e+00 0.0000000000000000e+00 3.7999998778104782e-02 0.0000000000000000e+00 -9.9472398869693279e-04 3.7986978888511658e-02 0.0000000000000000e+00 -1.9887662492692471e-03 3.7947922945022583e-02 0.0000000000000000e+00 -2.9814457520842552e-03 3.7882857024669647e-02 0.0000000000000000e+00 -3.9720814675092697e-03 3.7791833281517029e-02 0.0000000000000000e+00 -4.9599953927099705e-03 3.7674903869628906e-02 0.0000000000000000e+00 -7.1568768471479416e-03 4.5186743140220642e-02 0.0000000000000000e+00 -1.0455762967467308e-02 5.6414250284433365e-02 0.0000000000000000e+00 -1.4345906674861908e-02 6.7492187023162842e-02 0.0000000000000000e+00 -1.8821531906723976e-02 7.8397326171398163e-02 0.0000000000000000e+00 -2.3876056075096130e-02 8.9106656610965729e-02 0.0000000000000000e+00 -2.8401535004377365e-02 9.5881976187229156e-02 0.0000000000000000e+00 -3.0901700258255005e-02 9.5105648040771484e-02 0.0000000000000000e+00 -3.3380687236785889e-02 9.4264149665832520e-02 0.0000000000000000e+00 -3.5836793482303619e-02 9.3358039855957031e-02 0.0000000000000000e+00 -3.8268342614173889e-02 9.2387951910495758e-02 0.0000000000000000e+00 -4.0673665702342987e-02 9.1354548931121826e-02 0.0000000000000000e+00 -4.3051108717918396e-02 9.0258531272411346e-02 0.0000000000000000e+00 -4.5399051159620285e-02 8.9100651443004608e-02 0.0000000000000000e+00 -4.7715876251459122e-02 8.7881714105606079e-02 0.0000000000000000e+00 -5.0000000745058060e-02 8.6602538824081421e-02 0.0000000000000000e+00 -5.2249856293201447e-02 8.5264019668102264e-02 0.0000000000000000e+00 -5.4463904350996017e-02 8.3867058157920837e-02 0.0000000000000000e+00 -5.6640625000000000e-02 8.2412615418434143e-02 0.0000000000000000e+00 -5.8778524398803711e-02 8.0901697278022766e-02 0.0000000000000000e+00 -6.0876142233610153e-02 7.9335331916809082e-02 0.0000000000000000e+00 -6.2932036817073822e-02 7.7714599668979645e-02 0.0000000000000000e+00 -6.4944803714752197e-02 7.6040595769882202e-02 0.0000000000000000e+00 -6.6913060843944550e-02 7.4314482510089874e-02 0.0000000000000000e+00 -6.8835459649562836e-02 7.2537437081336975e-02 0.0000000000000000e+00 -6.5230600535869598e-02 6.5230600535869598e-02 0.0000000000000000e+00 -5.8483310043811798e-02 5.5498588830232620e-02 0.0000000000000000e+00 -5.1276993006467819e-02 4.6170011162757874e-02 0.0000000000000000e+00 -4.3628294020891190e-02 3.7262082099914551e-02 0.0000000000000000e+00 -3.5554427653551102e-02 2.8791407123208046e-02 0.0000000000000000e+00 -3.0147427693009377e-02 2.3132935166358948e-02 0.0000000000000000e+00 -3.0742645263671875e-02 2.2335840389132500e-02 0.0000000000000000e+00 -3.1316794455051422e-02 2.1523436531424522e-02 0.0000000000000000e+00 -3.1869482249021530e-02 2.0696284249424934e-02 0.0000000000000000e+00 -3.2400324940681458e-02 1.9854946061968803e-02 0.0000000000000000e+00 -3.2908964902162552e-02 1.8999999389052391e-02 0.0000000000000000e+00 -3.3395051956176758e-02 1.8132032826542854e-02 0.0000000000000000e+00 -3.3858247101306915e-02 1.7251638695597649e-02 0.0000000000000000e+00 -3.4298241138458252e-02 1.6359422355890274e-02 0.0000000000000000e+00 -3.4714728593826294e-02 1.5455992892384529e-02 0.0000000000000000e+00 -3.5107422620058060e-02 1.4541970565915108e-02 0.0000000000000000e+00 -3.5476054996252060e-02 1.3617982156574726e-02 0.0000000000000000e+00 -3.5820376127958298e-02 1.2684660963714123e-02 0.0000000000000000e+00 -3.6140147596597672e-02 1.1742645874619484e-02 0.0000000000000000e+00 -3.6435149610042572e-02 1.0792583227157593e-02 0.0000000000000000e+00 -3.6705181002616882e-02 9.8351240158081055e-03 0.0000000000000000e+00 -3.6950055509805679e-02 8.8709238916635513e-03 0.0000000000000000e+00 -3.7169609218835831e-02 7.9006440937519073e-03 0.0000000000000000e+00 -3.7363685667514801e-02 6.9249500520527363e-03 0.0000000000000000e+00 -3.7532158195972443e-02 5.9445095248520374e-03 0.0000000000000000e+00 -3.7674903869628906e-02 4.9599953927099705e-03 0.0000000000000000e+00 -3.7791833281517029e-02 3.9720814675092697e-03 0.0000000000000000e+00 -3.7882857024669647e-02 2.9814457520842552e-03 0.0000000000000000e+00 -3.7947922945022583e-02 1.9887662492692471e-03 0.0000000000000000e+00 -3.7986978888511658e-02 9.9472398869693279e-04 0.0000000000000000e+00 -3.7999998778104782e-02 0.0000000000000000e+00 0.0000000000000000e+00 -3.7986978888511658e-02 -9.9472398869693279e-04 0.0000000000000000e+00 -3.7947922945022583e-02 -1.9887662492692471e-03 0.0000000000000000e+00 -3.7882857024669647e-02 -2.9814457520842552e-03 0.0000000000000000e+00 -3.7791833281517029e-02 -3.9720814675092697e-03 0.0000000000000000e+00 -3.7674903869628906e-02 -4.9599953927099705e-03 0.0000000000000000e+00 -3.7532158195972443e-02 -5.9445095248520374e-03 0.0000000000000000e+00 -3.7363685667514801e-02 -6.9249500520527363e-03 0.0000000000000000e+00 -3.7169609218835831e-02 -7.9006440937519073e-03 0.0000000000000000e+00 -3.6950055509805679e-02 -8.8709238916635513e-03 0.0000000000000000e+00 -3.6705181002616882e-02 -9.8351240158081055e-03 0.0000000000000000e+00 -3.6435149610042572e-02 -1.0792583227157593e-02 0.0000000000000000e+00 -3.6140147596597672e-02 -1.1742645874619484e-02 0.0000000000000000e+00 -3.5820376127958298e-02 -1.2684660963714123e-02 0.0000000000000000e+00 -3.5476054996252060e-02 -1.3617982156574726e-02 0.0000000000000000e+00 -3.5107422620058060e-02 -1.4541970565915108e-02 0.0000000000000000e+00 -3.4714728593826294e-02 -1.5455992892384529e-02 0.0000000000000000e+00 -3.4298241138458252e-02 -1.6359422355890274e-02 0.0000000000000000e+00 -3.3858247101306915e-02 -1.7251638695597649e
[...]
      <PointData>
        <DataArray type="Float64" Name="RF" NumberOfComponents="3" format="ascii">
          0.0000000000000000e+00 0.0000000000000000e+00 0.0000000000000000e+00 0.0000000000000000e+00 0.0000000000000000e+00 0.0000000000000000e+00 0.0000000000000000e+00 0.0000000000000000e+00 0.0000000000000000e+00 0.0000000000000000e+00 0.0000000000000000e+00 0.0000000000000000e+00 0.0000000000000000e+00 0.0000000000000000e+00 0.0000000000000000e+00 0.0000000000000000e+00 0.0000000000000000e+00 0.0000000000000000e+00 0.0000000000000000e+00 0.0000000000000000e+00 0.0000000000000000e+00 0.0000000000000000e+00 0.0000000000000000e+00 0.0000000000000000e+00 0.0000000000000000e+00 0.0000000000000000e+00 0.0000000000000000e+00 0.0000000000000000e+00 0.0000000000000000e+00 0.0000000000000000e+00 0.0000000000000000e+00 0.0000000000000000e+00 0.0000000000000000e+00 0.0000000000000000e+00 0.0000000000000000e+00 0.0000000000000000e+00 0.0000000000000000e+00 0.0000000000000000e+00 0.0000000000000000e+00 0.0000000000000000e+00 0.0000000000000000e+00 0.0000000000000000e+00 0.0000000000000000e+00 0.0000000000000000e+00 0.0000000000000000e+00 0.0000000000000000e+00 0.0000000000000000e+00 0.0000000000000000e+00 0.0000000000000000e+00 0.0000000000000000e+00 0.0000000000000000e+00 0.0000000000000000e+00 0.0000000000000000e+00 0.0000000000000000e+00 0.0000000000000000e+00 0.0000000000000000e+00 0.0000000000000000e+00 0.0000000000000000e+00 0.0000000000000000e+00 0.0000000000000000e+00 0.0000000000000000e+00 0.0000000000000000e+00 0.0000000000000000e+00 0.0000000000000000e+00 0.0000000000000000e+00 0.0000000000000000e+00 0.0000000000000000e+00 0.0000000000000000e+00 0.0000000000000000e+00 0.0000000000000000e+00 0.0000000000000000e+00 0.0000000000000000e+00 0.0000000000000000e+00 0.0000000000000000e+00 0.0000000000000000e+00 0.0000000000000000e+00 0.0000000000000000e+00 0.0000000000000000e+00 0.0000000000000000e+00 0.0000000000000000e+00 0.0000000000000000e+00 0.0000000000000000e+00 0.0000000000000000e+00 0.0000000000000000e+00 0.0000000000000000e+00 0.0000000000000000e+00 0.0000000000000000e+00 0.0000000000000000e+00 0.0000000000000000e+00 0.0000000000000000e+00 0.0000000000000000e+00 0.0000000000000000e+00 0.0000000000000000e+00 0.0000000000000000e+00 0.0000000000000000e+00 0.0000000000000000e+00 0.0000000000000000e+00 0.0000000000000000e+00 0.0000000000000000e+00 0.0000000000000000e+00 0.0000000000000000e+00 0.0000000000000000e+00 0.0000000000000000e+00 0.0000000000000000e+00 0.0000000000000000e+00 0.0000000000000000e+00 0.0000000000000000e+00 0.0000000000000000e+00 0.0000000000000000e+00 0.0000000000000000e+00 0.0000000000000000e+00 0.0000000000000000e+00 0.0000000000000000e+00 0.0000000000000000e+00 0.0000000000000000e+00 0.0000000000000000e+00 0.0000000000000000e+00 0.0000000000000000e+00 0.0000000000000000e+00 0.0000000000000000e+00 0.0000000000000000e+00 0.0000000000000000e+00 0.0000000000000000e+00 0.0000000000000000e+00 0.0000000000000000e+00 0.0000000000000000e+00 0.0000000000000000e+00 0.0000000000000000e+00 0.0000000000000000e+00 0.0000000000000000e+00 0.0000000000000000e+00 0.0000000000000000e+00 0.0000000000000000e+00 0.0000000000000000e+00 0.0000000000000000e+00 0.0000000000000000e+00 0.0000000000000000e+00 0.0000000000000000e+00 0.0000000000000000e+00 0.0000000000000000e+00 0.0000000000000000e+00 0.0000000000000000e+00 0.0000000000000000e+00 0.0000000000000000e+00 0.0000000000000000e+00 0.0000000000000000e+00 0.0000000000000000e+00 0.0000000000000000e+00 0.0000000000000000e+00 0.0000000000000000e+00 0.0000000000000000e+00 0.0000000000000000e+00 0.0000000000000000e+00 0.0000000000000000e+00 0.0000000000000000e+00 0.0000000000000000e+00 0.0000000000000000e+00 0.0000000000000000e+00 0.0000000000000000e+00 0.0000000000000000e+00 0.0000000000000000e+00 0.0000000000000000e+00 0.0000000000000000e+00 0.0000000000000000e+00 0.0000000000000000e+00 0.0000000000000000e+00 0.0000000000000000e+00 0.0000000000000000e+00 0.0000000000000000e+00 0.0000000000000000e+00 0.0000000000000000e+00 0.0000000000000000e+00 0.0000000000000000e+00 0.0000000000000000e+00 0.0000000000000000e+00 0.0000000000000000e+00 0.0000000000000000e+00 0.0000000000000000e+00 0.0000000000000000e+00 0.0000000000000000e+00 0.0000000000000000e+00 0.0000000000000000e+00 0.0000000000000000e+00 0.0000000000000000e+00 0.0000000000000000e+00 0.0000000000000000e+00 0.0000000000000000e+00 0.0000000000000000e+00 0.0000000000000000e+00 0.0000000000000000e+00 0.0000000000000000e+00 0.0000000000000000e+00 0.0000000000000000e+00 0.0000000000000000e+00 0.0000000000000000e+00 0.0000000000000000e+00 0.0000000000000000e+00 0.0000000000000000e+00 0.0000000000000000e+00 0.0000000000000000e+00 0.0000000000000000e+00 0.0000000000000000e+00 0.0000000000000000e+00 0.0000000000000000e+00 0.0000000000000000e+00 0.0000000000000000e+00 0.0000000000000000e+00 0.0000000000000000e+00 0.0000000000000000e+00 0.0000000000000000e+00 0.0000000000000000e+00 0.0000000000000000e+00 0.0000000000000000e+00 0.0000000000000000e+00 0.0000000000000000e+00 0.0000000000000000e+00 0.0000000000000000e+00 0.0000000000000000e+00 0.0000000000000000e+00 0.0000000000000000e+00 0.0000000000000000e+00 0.0000000000000000e+00 0.0000000000000000e+00 0.0000000000000000e+00 0.0000000000000000e+00 0.0000000000000000e+00 0.0000000000000000e+00 0.0000000000000000e+00 0.0000000000000000e+00 0.0000000000000000e+00 0.0000000000000000e+00 0.0000000000000000e+00 0.0000000000000000e+00 0.0000000000000000e+00 0.0000000000000000e+00 0.0000000000000000e+00 0.0000000000000000e+00 0.0000000000000000e+00 0.0000000000000000e+00 0.0000000000000000e+00 0.0000000000000000e+00 0.0000000000000000e+00 0.0000000000000000e+00 0.0000000000000000e+00 0.0000000000000000e+00 0.0000000000000000e+00 0.0000000000000000e+00 0.0000000000000000e+00 0.0000000000000000e+00 0.0000000000000000e+00 0.0000000000000000e+00 0.0000000000000000e+00 0.0000000000000000e+00 0.0000000000000000e+00 0.0000000000000000e+00 0.0000000000000000e+00 0.0000000000000000e+00 0.0000000000000000e+00 0.0000000000000000e+00 0.0000000000000000e+00 0.0000000000000000e+00 0.0000000000000000e+00 0.0000000000000000e+00 0.0000000000000000e+00 0.0000000000000000e+00 0.0000000000000000e+00 0.0000000000000000e+00 0.0000000000000000e+00 0.0000000000000000e+00 0.0000000000000000e+00 0.0000000000000000e+00 0.0000000000000000e+00 0.0000000000000000e+00 0.0000000000000000e+00 0.0000000000000000e+00 0.0000000000000000e+00 0.0000000000000000e+00 0.0000000000000000e+00 0.0000000000000000e+00 0.0000000000000000e+00 0.0000000000000000e+00 0.0000000000000000e+00 0.0000000000000000e+00 0.0000000000000000e+00 0.0000000000000000e+00 0.0000000000000000e+00 0.0000000000000000e+00 0.0000000000000000e+00 0.0000000000000000e+00 0.0000000000000000e+00 0.0000000000000000e+00 0.0000000000000000e+00 0.0000000000000000e+00 0.0000000000000000e+00 0.0000000000000000e+00 0.0000000000000000e+00 0.0000000000000000e+00 0.0000000000000000e+00 0.0000000000000000e+00 0.0000000000000000e+00 0.0000000000000000e+00 0.0000000000000000e+00 0.0000000000000000e+00 0.0000000000000000e+00 0.0000000000000000e+00 0.0000000000000000e+00 0.0000000000000000e+00 0.0000000000000000e+00 0.0000000000000000e+00 0.0000000000000000e+00 0.0000000000000000e+00 0.0000000000000000e+00 0.0000000000000000e+00 0.0000000000000000e+00 0.0000000000000000e+00 0.0000000000000000e+00 0.0000000000000000e+00 0.0000000000000000e+00 0.0000000000000000e+00 0.0000000000000000e+00 0.0000000000000000e+00 0.0000000000000000e+00 0.0000000000000000e+00 0.0000000000000000e+00 0.0000000000000000e+00 0.0000000000000000e+00 0.0000000000000000e+00 0.0000000000000000e+00 0.0000000000000000e+00 0.0000000000000000e+00 0.0000000000000000e+00 0.0000000000000000e+00 0.0000000000000000e+00 0.0000000000000000e+00 0.0000000000000000e+00 0.0000000000000000e+00 0.0000000000000000e+00 0.0000000000000000e+00 0.0000000000000000e+00 0.0000000000000000e+00 0.0000000000000000e+00 0.0000000000000000e+00 0.0000000000000000e+00 0.0000000000000000e+00 0.0000000000000000e+00 0.0000000000000000e+00 0.0000000000000000e+00 0.0000000000000000e+00 0.0000000000000000e+00 0.0000000000000000e+00 0.0000000000000000e+00 0.0000000000000000e+00 0.0000000000000000e+00 0.0000000000000000e+00 0.0000000000000000e+00 0.0000000000000000e+00 0.0000000000000000e+00 0.0000000000000000e+00 0.0000000000000000e+00 0.0000000000000000e+00 0.0000000000000000e+00 0.0000000000000000e+00 0.0000000000000000e+00 0.0000000000000000e+00 0.0000000000000000e+00 0.0000000000000000e+00 0.0000000000000000e+00 0.0000000000000000e+00 0.0000000000000000e+00 0.0000000000000000e+00 0.0000000000000000e+00 0.0000000000000000e+00 0.0000000000000000e+00 0.0000000000000000e+00 0.0000000000000000e+00 0.0000000000000000e+00 0.0000000000000000e+00 0.0000000000000000e+00 0.0000000000000000e+00 0.0000000000000000e+00 0.0000000000000000e+00 0.0000000000000000e+00 0.0000000000000000e+00 0.0000000000000000e+00 0.0000000000000000e+00 0.0000000000000000e+00 0.0000000000000000e+00 0.0000000000000000e+00 0.0000000000000000e+00 0.0000000000000000e+00 0.0000000000000000e+00 0.0000000000000000e+00 0.0000000000000000e+00 0.0000000000000000e+00 0.0000000000000000e+00 0.0000000000000000e+00 0.0000000000000000e+00 0.0000000000000000e+00 0.0000000000000000e+00 0.0000000000000000e+00 0.0000000000000000e+00 0.0000000000000000e+00 0.0000000000000000e+00 0.0000000000000000e+00 0.0000000000000000e+00 0.0000000000000000e+00 0.0000000000000000e+00 0.0000000000000000e+00 0.0000000000000000e+00 0.0000000000000000e+00 0.0000000000000000e+00 0.0000000000000000e+00 0.0000000000000000e+00 0.0000000000000000e+00 0.0000000000000000e+00 0.0000000000000000e+00 0.0000000000000000e+00 0.0000000000000000e+00 0.0000000000000000e+00 0.0000000000000000e+00 0.0000000000000000e+00 0.0000000000000000e+00 0.0000000000000000e+00 0.0000000000000000e+00 0.0000000000000000e+00 0.0000000000000000e+00 0.0000000000000000e+00 0.0000000000000000e+00 0.0000000000000000e+00 0.0000000000000000e+00 0.0000000000000000e+00 0.0000000000000000e+00 0.0000000000000000e+00 0.0000000000000000e+00 0.0000000000000000e+00 0.0000000000000000e+00 0.0000000000000000e+00 0.0000000000000000e+00 0.0000000000000000e+00 0.0000000000000000e+00 0.0000000000000000e+00 0.0000000000000000e+00 0.0000000000000000e+00 0.0000000000000000e+00 0.0000000000000000e+00 0.0000000000000000e+00 0.0000000000000000e+00 0.0000000000000000e+00 0.0000000000000000e+00 0.0000000000000000e+00 0.0000000000000000e+00 0.0000000000000000e+00 0.0000000000000000e+00 0.0000000000000000e+00 0.0000000000000000e+00 0.0000000000000000e+00 0.0000000000000000e+00 0.0000000000000000e+00 0.0000000000000000e+00 0.0000000000000000e+00 0.0000000000000000e+00 0.0000000000000000e+00 0.0000000000000000e+00 0.0000000000000000e+00 0.0000000000000000e+00 0.0000000000000000e+00 0.0000000000000000e+00 0.0000000000000000e+00 0.0000000000000000e+00 0.0000000000000000e+00 0.0000000000000000e+00 0.0000000000000000e+00 0.0000000000000000e+00 0.0000000000000000e+00 0.0000000000000000e+00 0.0000000000000000e+00 0.0000000000000000e+00 0.0000000000000000e+00 0.0000000000000000e+00 0.0000000000000000e+00 0.0000000000000000e+00 0.0000000000000000e+00 0.0000000000000000e+00 0.0000000000000000e+00 0.0000000000000000e+00 0.0000000000000000e+00 0.0000000000000000e+00 0.0000000000000000e+00 0.0000000000000000e+00 0.0000000000000000e+00 0.0000000000000000e+00 0.0000000000000000e+00 0.0000000000000000e+00 0.0000000000000000e+00 0.0000000000000000e+00 0.0000000000000000e+00 0.0000000000000000e+00 0.0000000000000000e+00 0.0000000000000000e+00 0.0000000000000000e+00 0.0000000000000000e+00 0.0000000000000000e+00 0.0000000000000000e+00 0.0000000000000000e+00 0.0000000000000000e+00 0.0000000000000000e+00 0.0000000000000000e+00 0.0000000000000000e+00 0.0000000000000000e+00 0.0000000000000000e+00 0.0000000000000000e+00 0.0000000000000000e+00 0.0000000000000000e+00 0.0000000000000000e+00 0.0000000000000000e+00 0.0000000000000000e+00 0.0000000000000000e+00 0.0000000000000000e+00 0.0000000000000000e+00 0.0000000000000000e+00 0.0000000000000000e+00 0.0000000000000000e+00 0.0000000000000000e+00 0.0000000000000000e+00 0.0000000000000000e+00 0.0000000000000000e+00 0.0000000000000000e+00 0.0000000000000000e+00 0.0000000000000000e+00 0.0000000000000000e+00 0.0000000000000000e+00 0.0000000000000000e+00 0.0000000000000000e+00 0.0000000000000000e+00 0.0000000000000000e+00 0.0000000000000000e+00 0.0000000000000000e+00 0.0000000000000000e+00 0.0000000000000000e+00 0.0000000000000000e+00 0.0000000000000000e+00 0.0000000000000000e+00 0.0000000000000000e+00 0.0000000000000000e+00 0.0000000000000000e+00 0.0000000000000000e+00 0.0000000000000000e+00 0.0000000000000000e+00 0.0000000000000000e+00 0.0000000000000000e+00 0.0000000000000000e+00 0.0000000000000000e+00 0.0000000000000000e+00 0.0000000000000000e+00 0.0000000000000000e+00 0.0000000000000000e+00 0.0000000000000000e+00 0.0000000000000000e+00 0.0000000000000000e+00 0.0000000000000000e+00 0.0000000000000000e+00 0.0000000000000000e+00 0.0000000000000000e+00 0.0000000000000000e+00 0.0000000000000000e+00 0.0000000000000000e+00 0.0000000000000000e+00 0.0000000000000000e+00 0.0000000000000000e+00 0.0000000000000000e+00 0.0000000000000000e+00 0.0000000000000000e+00 0.0000000000000000e+00 0.0000000000000000e+00 0.0000000000000000e+00 0.0000000000000000e+00 0.0000000000000000e+00 0.0000000000000000e+00 0.0000000000000000e+00 0.0000000000000000e+00 0.0000000000000000e+00 0.0000000000000000e+00 0.0000000000000000e+00 0.0000000000000000e+00 0.0000000000000000e+00 0.0000000000000000e+00 0.0000000000000000e+00 0.0000000000000000e+00 0.0000000000000000e+00 0.0000000000000000e+00 0.0000000000000000e+00 0.0000000000000000e+00 0.0000000000000000e+00 0.0000000000000000e+00 0.0000000000000000e+00 0.0000000000000000e+00 0.0000000000000000e+00 0.0000000000000000e+00 0.0000000000000000e+00 0.0000000000000000e+00 0.0000000000000000e+00 0.0000000000000000e+00 0.0000000000000000e+00 0.0000000000000000e+00 0.0000000000000000e+00 0.0000000000000000e+00 0.0000000000000000e+00 0.0000000000000000e+00 0.0000000000000000e+00 0.0000000000000000e+00 0.0000000000000000e+00 0.0000000000000000e+00 0.0000000000000000e+00 0.0000000000000000e+00 0.0000000000000000e+00 0.0000000000000000e+00 0.0000000000000000e+00 0.0000000000000000e+00 0.0000000000000000e+00 0.0000000000000000e+00 0.0000000000000000e+00 0.0000000000000000e+00 0.0000000000000000e+00 0.0000000000000000e+00 0.0000000000000000e+00 0.0000000000000000e+00 0.0000000000000000e+00 0.0000000000000000e+00 0.0000000000000000e+00 0.0000000000000000e+00 0.0000000000000000e+00 0.0000000000000000e+00 0.0000000000000000e+00 0.0000000000000000e+00 0.0000000000000000e+00 0.0000000000000000e+00 0.0000000000000000e+00 0.0000000000000000e+00 0.0000000000000000e+00 0.0000000000000000e+00 0.0000000000000000e+00 0.0000000000000000e+00 0.0000000000000000e+00 0.0000000000000000e+00 0.0000000000000000e+00 0.0000000000000000e+00 0.0000000000000000e+00 0.0000000000000000e+00 0.0000000000000000e+00 0.0000000000000000e+00 0.0000000000000000e+00 0.0000000000000000e+00 0.0000000000000000e+00 0.0000000000000000e+00 0.0000000000000000e+00 0.0000000000000000e+00 0.0000000000000000e+00 0.0000000000000000e+00 0.0000000000000000e+00 0.0000000000000000e+00 0.0000000000000000e+00 0.0000000000000000e+00 0.0000000000000000e+00 0.0000000000000000e+00 0.0000000000000000e+00 0.0000000000000000e+00 0.0000000000000000e+00 0.0000000000000000e+00 0.0000000000000000e+00 0.0000000000000000e+00 0.0000000000000000e+00 0.0000000000000000e+00 0.0000000000000000e+00 0.0000000000000000e+00 0.0000000000000000e+00 0.0000000000000000e+00 0.0000000000000000e+00 0.0000000000000000e+00 0.0000000000000000e+00 0.0000000000000000e+00 0.0000000000000000e+00 0.0000000000000000e+00 0.0000000000000000e+00 0.0000000000000000e+00 0.0000000000000000e+00 0.0000000000000000e+00 0.0000000000000000e+00 0.0000000000000000e+00 0.0000000000000000e+00 0.0000000000000000e+00 0.0000000000000000e+00 0.0000000000000000e+00 0.0000000000000000e+00 0.0000000000000000e+00 0.0000000000000000e+00 0.0000000000000000e+00 0.0000000000000000e+00 0.0000000000000000e+00 0.0000000000000000e+00 0.0000000000000000e+00 0.0000000000000000e+00 0.0000000000000000e+00 0.0000000000000000e+00 0.0000000000000000e+00 0.0000000000000000e+00 0.0000000000000000e+00 0.0000000000000000e+00 0.0000000000000000e+00 0.0000000000000000e+00 0.0000000000000000e+00 0.0000000000000000e+00 0.0000000000000000e+00 0.0000000000000000e+00 0.0000000000000000e+00 0.0000000000000000e+00 0.0000000000000000e+00 0.0000000000000000e+00 0.0000000000000000e+00 0.0000000000000000e+00 0.0000000000000000e+00 -2.3294094085693359e+01 -6.6415444016456604e-02 -1.3954558109593258e-16 0.0000000000000000e+00 0.0000000000000000e+00 0.0000000000000000e+00 0.0000000000000000e+00 0.0000000000000000e+00 0.0000000000000000e+00 0.0000000000000000e+00 0.0000000000000000e+00 0.0000000000000000e+00 0.0000000000000000e+00 0.0000000000000000e+00 0.0000000000000000e+00 0.0000000000000000e+00 0.0000000000000000e+00 0.0000000000000000e+00 0.0000000000000000e+00 0.0000000000000000e+00 0.0000000000000000e+00 0.0000000000000000e+00 0.0000000000000000e+00 0.0000000000000000e+00 0.0000000000000000e+00 0.0000000000000000e+00 0.0000000000000000e+00 0.0000000000000000e+00 0.0000000000000000e+00 0.0000000000000000e+00 0.0000000000000000e+00 0.0000000000000000e+00 0.0000000000000000e+00 0.0000000000000000e+00 0.0000000000000000e+00 0.0000000000000000e+00 0.0000000000000000e+00 0.0000000000000000e+00 0.0000000000000000e+00 0.0000000000000000e+00 0.0000000000000000e+00 0.0000000000000000e+00 0.0000000000000000e+00 0.0000000000000000e+00 0.0000000000000000e+00 0.0000000000000000e+00 0.0000000000000000e+00 0.0000000000000000e+00 0.0000000000000000e+00 0.0000000000000000e+00 0.0000000000000000e+00 0.0000000000000000e+00 0.0000000000000000e+00 0.0000000000000000e+00 0.0000000000000000e+00 0.0000000000000000e+00 0.0000000000000000e+00 0.0000000000000000e+00 0.0000000000000000e+00 0.0000000000000000e+00 0.0000000000000000e+00 0.0000000000000000e+00 0.0000000000000000e+00 0.0000000000000000e+00 0.0000000000000000e+00 0.0000000000000000e+00 0.0000000000000000e+00 0.0000000000000000e+00 0.0000000000000000e+00 0.0000000000000000e+00 0.0000000000000000e+00 0.0000000000000000e+00 0.0000000000000000e+00 0.0000000000000000e+00 0.0000000000000000e+00 0.0000000000000000e+00 0.0000000000000000e+00 0.0000000000000000e+00 0.0000000000000000e+00 0.0000000000000000e+00 0.0000000000000000e+00 0.0000000000000000e+00 0.0000000000000000e+00 0.0000000000000000e+00 0.0000000000000000e+00 0.0000000000000000e+00 0.0000000000000000e+00 0.0000000000000000e+00 0.0000000000000000e+00 0.0000000000000000e+00 0.0000000000000000e+00 0.0000000000000000e+00 0.0000000000000000e+00 0.0000000000000000e+00 0.0000000000000000e+00 0.0000000000000000e+00 0.0000000000000000e+00 0.0000000000000000e+00 0.0000000000000000e+00 0.0000000000000000e+00 0.0000000000000000e+00 0.0000000000000000e+00 0.0000000000000000e+00 0.0000000000000000e+00 0.0000000000000000e+00 0.0000000000000000e+00 0.0000000000000000e+00 0.0000000000000000e+00 0.0000000000000000e+00 0.0000000000000000e+00 0.0000000000000000e+00 0.0000000000000000e+00 0.0000000000000000e+00 0.0000000000000000e+00 0.0000000000000000e+00 0.0000000000000000e+00 0.0000000000000000e+00 0.0000000000000000e+00 0.0000000000000000e+00 0.0000000000000000e+00 0.0000000000000000e+00 0.0000000000000000e+00 0.0000000000000000e+00 0.0000000000000000e+00 0.0000000000000000e+00 0.0000000000000000e+00 0.0000000000000000e+00 0.0000000000000000e+00 0.0000000000000000e+00 0.0000000000000000e+00 0.0000000000000000e+00 0.0000000000000000e+00 0.0000000000000000e+00 0.0000000000000000e+00 0.0000000000000000e+00 0.0000000000000000e+00 0.0000000000000000e+00 0.0000000000000000e+00 0.0000000000000000e+00 0.0000000000000000e+00 0.0000000000000000e+00 0.0000000000000000e+00 0.0000000000000000e+00 0.0000000000000000e+00 0.000000000000