<?xml version="1.0"?>
<VTKFile type="UnstructuredGrid" version="0.1" byte_order="LittleEndian">
  <UnstructuredGrid>
    <Piece NumberOfPoints="1581" NumberOfCells="4279">
      <Points>
        <DataArray type="Float64" NumberOfComponents="3" format="ascii">
          1.2000000000000000e+02 6.0000000000000000e+01 1.0000000000000000e+00 1.2000000000000000e+02 0.0000000000000000e+00 1.0000000000000000e+00 1.2000000000000000e+02 0.0000000000000000e+00 0.0000000000000000e+00 1.2000000000000000e+02 6.0000000000000000e+01 0.0000000000000000e+00 8.2800003051757813e+01 3.0000000000000000e+01 1.0000000000000000e+00 8.2800003051757813e+01 3.0000000000000000e+01 0.0000000000000000e+00 0.0000000000000000e+00 0.0000000000000000e+00 1.0000000000000000e+00 0.0000000000000000e+00 0.0000000000000000e+00 0.0000000000000000e+00 0.0000000000000000e+00 6.0000000000000000e+01 0.0000000000000000e+00 0.0000000000000000e+00 6.0000000000000000e+01 1.0000000000000000e+00 1.2000000000000000e+02 5.7000000000000000e+01 1.0000000000000000e+00 1.2000000000000000e+02 5.4000000000000000e+01 1.0000000000000000e+00 1.2000000000000000e+02 5.1000000000000000e+01 1.0000000000000000e+00 1.2000000000000000e+02 4.8000000000000000e+01 1.0000000000000000e+00 1.2000000000000000e+02 4.5000000000000000e+01 1.0000000000000000e+00 1.2000000000000000e+02 4.2000000000000000e+01 1.0000000000000000e+00 1.2000000000000000e+02 3.9000000000000000e+01 1.0000000000000000e+00 1.2000000000000000e+02 3.6000000000000000e+01 1.0000000000000000e+00 1.2000000000000000e+02 3.3000000000000000e+01 1.0000000000000000e+00 1.2000000000000000e+02 3.0000000000000000e+01 1.0000000000000000e+00 1.2000000000000000e+02 2.7000000000000000e+01 1.0000000000000000e+00 1.2000000000000000e+02 2.4000000000000000e+01 1.0000000000000000e+00 1.2000000000000000e+02 2.1000000000000000e+01 1.0000000000000000e+00 1.2000000000000000e+02 1.8000000000000000e+01 1.0000000000000000e+00 1.2000000000000000e+02 1.5000000000000000e+01 1.0000000000000000e+00 1.2000000000000000e+02 1.2000000000000000e+01 1.0000000000000000e+00 1.2000000000000000e+02 9.0000000000000000e+00 1.0000000000000000e+00 1.2000000000000000e+02 6.0000000000000000e+00 1.0000000000000000e+00 1.2000000000000000e+02 3.0000000000000000e+00 1.0000000000000000e+00 1.2000000000000000e+02 3.0000000000000000e+00 0.0000000000000000e+00 1.2000000000000000e+02 6.0000000000000000e+00 0.0000000000000000e+00 1.2000000000000000e+02 9.0000000000000000e+00 0.0000000000000000e+00 1.2000000000000000e+02 1.2000000000000000e+01 0.0000000000000000e+00 1.2000000000000000e+02 1.5000000000000000e+01 0.0000000000000000e+00 1.2000000000000000e+02 1.8000000000000000e+01 0.0000000000000000e+00 1.2000000000000000e+02 2.1000000000000000e+01 0.0000000000000000e+00 1.2000000000000000e+02 2.4000000000000000e+01 0.0000000000000000e+00 1.2000000000000000e+02 2.7000000000000000e+01 0.0000000000000000e+00 1.2000000000000000e+02 3.0000000000000000e+01 0.0000000000000000e+00 1.2000000000000000e+02 3.3000000000000000e+01 0.0000000000000000e+00 1.2000000000000000e+02 3.6000000000000000e+01 0.0000000000000000e+00 1.2000000000000000e+02 3.9000000000000000e+01 0.0000000000000000e+00 1.2000000000000000e+02 4.2000000000000000e+01 0.0000000000000000e+00 1.2000000000000000e+02 4.5000000000000000e+01 0.0000000000000000e+00 1.2000000000000000e+02 4.8000000000000000e+01 0.0000000000000000e+00 1.2000000000000000e+02 5.1000000000000000e+01 0.0000000000000000e+00 1.2000000000000000e+02 5.4000000000000000e+01 0.0000000000000000e+00 1.2000000000000000e+02 5.7000000000000000e+01 0.0000000000000000e+00 8.2604942321777344e+01 3.2975997924804688e+01 1.0000000000000000e+00 8.2023109436035156e+01 3.5901073455810547e+01 1.0000000000000000e+00 8.1064453125000000e+01 3.8725181579589844e+01 1.0000000000000000e+00 7.9745376586914063e+01 4.1400001525878906e+01 1.0000000000000000e+00 7.8088455200195313e+01 4.3879760742187500e+01 1.0000000000000000e+00 7.6122032165527344e+01 4.6122035980224609e+01 1.0000000000000000e+00 7.3879760742187500e+01 4.8088455200195313e+01 1.0000000000000000e+00 7.1400001525878906e+01 4.9745380401611328e+01 1.0000000000000000e+00 6.8725181579589844e+01 5.1064453125000000e+01 1.0000000000000000e+00 6.5901077270507813e+01 5.2023109436035156e+01 1.0000000000000000e+00 6.2975997924804688e+01 5.2604942321777344e+01 1.0000000000000000e+00 6.0000000000000000e+01 5.2799999237060547e+01 1.0000000000000000e+00 5.7024002075195313e+01 5.2604942321777344e+01 1.0000000000000000e+00 5.4098926544189453e+01 5.2023109436035156e+01 1.0000000000000000e+00 5.1274818420410156e+01 5.1064453125000000e+01 1.0000000000000000e+00 4.8599998474121094e+01 4.9745380401611328e+01 1.0000000000000000e+00 4.6120239257812500e+01 4.8088455200195313e+01 1.0000000000000000e+00 4.3877964019775391e+01 4.6122035980224609e+01 1.0000000000000000e+00 4.1911544799804688e+01 4.3879760742187500e+01 1.0000000000000000e+00 4.0254619598388672e+01 4.1400001525878906e+01 1.0000000000000000e+00 3.8935546875000000e+01 3.8725181579589844e+01 1.0000000000000000e+00 3.7976890563964844e+01 3.5901073455810547e+01 1.0000000000000000e+00 3.7395057678222656e+01 3.2975997924804688e+01 1.0000000000000000e+00 3.7200000762939453e+01 3.0000000000000000e+01 1.0000000000000000e+00 3.7395057678222656e+01 2.7024002075195313e+01 1.0000000000000000e+00 3.7976890563964844e+01 2.4098926544189453e+01 1.0000000000000000e+00 3.8935546875000000e+01 2.1274818420410156e+01 1.0000000000000000e+00 4.0254619598388672e+01 1.8600000381469727e+01 1.0000000000000000e+00 4.1911544799804688e+01 1.6120239257812500e+01 1.0000000000000000e+00 4.3877964019775391e+01 1.3877964973449707e+01 1.0000000000000000e+00 4.6120239257812500e+01 1.1911543846130371e+01 1.0000000000000000e+00 4.8599998474121094e+01 1.0254620552062988e+01 1.0000000000000000e+00 5.1274818420410156e+01 8.9355468750000000e+00 1.0000000000000000e+00 5.4098926544189453e+01 7.9768910408020020e+00 1.0000000000000000e+00 5.7024002075195313e+01 7.3950572013854980e+00 1.0000000000000000e+00 6.0000000000000000e+01 7.1999998092651367e+00 1.0000000000000000e+00 6.2975997924804688e+01 7.3950572013854980e+00 1.0000000000000000e+00 6.5901077270507813e+01 7.9768910408020020e+00 1.0000000000000000e+00 6.8725181579589844e+01 8.9355468750000000e+00 1.0000000000000000e+00 7.1400001525878906e+01 1.0254620552062988e+01 1.0000000000000000e+00 7.3879760742187500e+01 1.1911543846130371e+01 1.0000000000000000e+00 7.6122032165527344e+01 1.3877964973449707e+01 1.0000000000000000e+00 7.8088455200195313e+01 1.6120239257812500e+01 1.0000000000000000e+00 7.9745376586914063e+01 1.8600000381469727e+01 1.0000000000000000e+00 8.1064453125000000e+01 2.1274818420410156e+01 1.0000000000000000e+00 8.2023109436035156e+01 2.4098926544189453e+01 1.0000000000000000e+00 8.2604942321777344e+01 2.7024002075195313e+01 1.0000000000000000e+00 8.2604942321777344e+01 3.2975997924804688e+01 0.0000000000000000e+00 8.2023109436035156e+01 3.5901073455810547e+01 0.0000000000000000e+00 8.1064453125000000e+01 3.8725181579589844e+01 0.0000000000000000e+00 7.9745376586914063e+01 4.1400001525878906e+01 0.0000000000000000e+00 7.8088455200195313e+01 4.3879760742187500e+01 0.0000000000000000e+00 7.6122032165527344e+01 4.6122035980224609e+01 0.0000000000000000e+00 7.3879760742187500e+01 4.8088455200195313e+01 0.0000000000000000e+00 7.1400001525878906e+01 4.9745380401611328e+01 0.0000000000000000e+00 6.8725181579589844e+01 5.1064453125000000e+01 0.0000000000000000e+00 6.5901077270507813e+01 5.2023109436035156e+01 0.0000000000000000e+00 6.2975997924804688e+01 5.2604942321777344e+01 0.0000000000000000e+00 6.0000000000000000e+01 5.2799999237060547e+01 0.0000000000000000e+00 5.7024002075195313e+01 5.2604942321777344e+01 0.0000000000000000e+00 5.4098926544189453e+01 5.2023109436035156e+01 0.0000000000000000e+00 5.1274818420410156e+01 5.1064453125000000e+01 0.0000000000000000e+00 4.8599998474121094e+01 4.9745380401611328e+01 0.0000000000000000e+00 4.6120239257812500e+01 4.8088455200195313e+01 0.0000000000000000e+00 4.3877964019775391e+01 4.6122035980224609e+01 0.0000000000000000e+00 4.1911544799804688e+01 4.3879760742187500e+01 0.0000000000000000e+00 4.0254619598388672e+01 4.1400001525878906e+01 0.0000000000000000e+00 3.8935546875000000e+01 3.8725181579589844e+01 0.0000000000000000e+00 3.7976890563964844e+01 3.5901073455810547e+01 0.0000000000000000e+00 3.7395057678222656e+01 3.2975997924804688e+01 0.0000000000000000e+00 3.7200000762939453e+01 3.0000000000000000e+01 0.0000000000000000e+00 3.7395057678222656e+01 2.7024002075195313e+01 0.0000000000000000e+00 3.7976890563964844e+01 2.4098926544189453e+01 0.0000000000000000e+00 3.8935546875000000e+01 2.1274818420410156e+01 0.0000000000000000e+00 4.0254619598388672e+01 1.8600000381469727e+01 0.0000000000000000e+00 4.1911544799804688e+01 1.6120239257812500e+01 0.0000000000000000e+00 4.3877964019775391e+01 1.3877964973449707e+01 0.0000000000000000e+00 4.6120239257812500e+01 1.1911543846130371e+01 0.0000000000000000e+00 4.8599998474121094e+01 1.0254620552062988e+01 0.0000000000000000e+00 5.1274818420410156e+01 8.9355468750000000e+00 0.0000000000000000e+00 5.4098926544189453e+01 7.9768910408020020e+00 0.0000000000000000e+00 5.7024002075195313e+01 7.3950572013854980e+00 0.0000000000000000e+00 6.0000000000000000e+01 7.1999998092651367e+00 0.0000000000000000e+00 6.2975997924804688e+01 7.3950572013854980e+00 0.0000000000000000e+00 6.5901077270507813e+01 7.9768910408020020e+00 0.0000000000000000e+00 6.8725181579589844e+01 8.9355468750000000e+00 0.0000000000000000e+00 7.1400001525878906e+01 1.0254620552062988e+01 0.0000000000000000e+00 7.3879760742187500e+01 1.1911543846130371e+01 0.0000000000000000e+00 7.6122032165527344e+01 1.3877964973449707e+01 0.0000000000000000e+00 7.8088455200195313e+01 1.6120239257812500e+01 0.0000000000000000e+00 7.9745376586914063e+01 1.8600000381469727e+01 0.0000000000000000e+00 8.1064453125000000e+01 2.1274818420410156e+01 0.0000000000000000e+00 8.2023109436035156e+01 2.4098926544189453e+01 0.0000000000000000e+00 8
[...]
      <PointData>
        <DataArray type="Float64" Name="RF" NumberOfComponents="3" format="ascii">
          1.3917335510253906e+02 0.0000000000000000e+00 0.0000000000000000e+00 6.9821563720703125e+01 0.0000000000000000e+00 0.0000000000000000e+00 1.3861376953125000e+02 0.0000000000000000e+00 0.0000000000000000e+00 6.8850662231445313e+01 0.0000000000000000e+00 0.0000000000000000e+00 0.0000000000000000e+00 0.0000000000000000e+00 0.0000000000000000e+00 0.0000000000000000e+00 0.0000000000000000e+00 0.0000000000000000e+00 -1.6629002380371094e+02 -4.7007526397705078e+01 9.7957084655761719e+01 -9.1706741333007813e+01 -6.8053901672363281e+01 -1.0221604919433594e+02 -1.7089495849609375e+02 5.1138278961181641e+01 -1.4641423034667969e+02 -7.8823188781738281e+01 6.7699905395507813e+01 1.3809648132324219e+02 2.0419174194335938e+02 0.0000000000000000e+00 0.0000000000000000e+00 1.8730737304687500e+02 0.0000000000000000e+00 0.0000000000000000e+00 1.7405290222167969e+02 0.0000000000000000e+00 0.0000000000000000e+00 1.5056715393066406e+02 0.0000000000000000e+00 0.0000000000000000e+00 1.3093083190917969e+02 0.0000000000000000e+00 0.0000000000000000e+00 1.1263040924072266e+02 0.0000000000000000e+00 0.0000000000000000e+00 9.7510391235351563e+01 0.0000000000000000e+00 0.0000000000000000e+00 8.7674407958984375e+01 0.0000000000000000e+00 0.0000000000000000e+00 8.0153747558593750e+01 0.0000000000000000e+00 0.0000000000000000e+00 7.7356529235839844e+01 0.0000000000000000e+00 0.0000000000000000e+00 8.0683387756347656e+01 0.0000000000000000e+00 0.0000000000000000e+00 8.7179962158203125e+01 0.0000000000000000e+00 0.0000000000000000e+00 1.0266987609863281e+02 0.0000000000000000e+00 0.0000000000000000e+00 1.1890764617919922e+02 0.0000000000000000e+00 0.0000000000000000e+00 1.3423133850097656e+02 0.0000000000000000e+00 0.0000000000000000e+00 1.6310392761230469e+02 0.0000000000000000e+00 0.0000000000000000e+00 1.7324168395996094e+02 0.0000000000000000e+00 0.0000000000000000e+00 1.9311402893066406e+02 0.0000000000000000e+00 0.0000000000000000e+00 2.0396540832519531e+02 0.0000000000000000e+00 0.0000000000000000e+00 1.9939628601074219e+02 0.0000000000000000e+00 0.0000000000000000e+00 1.8589607238769531e+02 0.0000000000000000e+00 0.0000000000000000e+00 1.7255488586425781e+02 0.0000000000000000e+00 0.0000000000000000e+00 1.4412625122070313e+02 0.0000000000000000e+00 0.0000000000000000e+00 1.3366537475585938e+02 0.0000000000000000e+00 0.0000000000000000e+00 1.1209594726562500e+02 0.0000000000000000e+00 0.0000000000000000e+00 9.6539176940917969e+01 0.0000000000000000e+00 0.0000000000000000e+00 8.7537178039550781e+01 0.0000000000000000e+00 0.0000000000000000e+00 7.8727378845214844e+01 0.0000000000000000e+00 0.0000000000000000e+00 7.6846534729003906e+01 0.0000000000000000e+00 0.0000000000000000e+00 7.9251533508300781e+01 0.0000000000000000e+00 0.0000000000000000e+00 8.7020256042480469e+01 0.0000000000000000e+00 0.0000000000000000e+00 1.0178974151611328e+02 0.0000000000000000e+00 0.0000000000000000e+00 1.1815702056884766e+02 0.0000000000000000e+00 0.0000000000000000e+00 1.3698318481445313e+02 0.0000000000000000e+00 0.0000000000000000e+00 1.5676034545898438e+02 0.0000000000000000e+00 0.0000000000000000e+00 1.7212403869628906e+02 0.0000000000000000e+00 0.0000000000000000e+00 1.9091552734375000e+02 0.0000000000000000e+00 0.0000000000000000e+00 2.0029014587402344e+02 0.0000000000000000e+00 0.0000000000000000e+00 0.0000000000000000e+00 0.0000000000000000e+00 0.0000000000000000e+00 0.0000000000000000e+00 0.0000000000000000e+00 0.0000000000000000e+00 0.0000000000000000e+00 0.0000000000000000e+00 0.0000000000000000e+00 0.0000000000000000e+00 0.0000000000000000e+00 0.0000000000000000e+00 0.0000000000000000e+00 0.0000000000000000e+00 0.0000000000000000e+00 0.0000000000000000e+00 0.0000000000000000e+00 0.0000000000000000e+00 0.0000000000000000e+00 0.0000000000000000e+00 0.0000000000000000e+00 0.0000000000000000e+00 0.0000000000000000e+00 0.0000000000000000e+00 0.0000000000000000e+00 0.0000000000000000e+00 0.0000000000000000e+00 0.0000000000000000e+00 0.0000000000000000e+00 0.0000000000000000e+00 0.0000000000000000e+00 0.0000000000000000e+00 0.0000000000000000e+00 0.0000000000000000e+00 0.0000000000000000e+00 0.0000000000000000e+00 0.0000000000000000e+00 0.0000000000000000e+00 0.0000000000000000e+00 0.0000000000000000e+00 0.0000000000000000e+00 0.0000000000000000e+00 0.0000000000000000e+00 0.0000000000000000e+00 0.0000000000000000e+00 0.0000000000000000e+00 0.0000000000000000e+00 0.0000000000000000e+00 0.0000000000000000e+00 0.0000000000000000e+00 0.0000000000000000e+00 0.0000000000000000e+00 0.0000000000000000e+00 0.0000000000000000e+00 0.0000000000000000e+00 0.0000000000000000e+00 0.0000000000000000e+00 0.0000000000000000e+00 0.0000000000000000e+00 0.0000000000000000e+00 0.0000000000000000e+00 0.0000000000000000e+00 0.0000000000000000e+00 0.0000000000000000e+00 0.0000000000000000e+00 0.0000000000000000e+00 0.0000000000000000e+00 0.0000000000000000e+00 0.0000000000000000e+00 0.0000000000000000e+00 0.0000000000000000e+00 0.0000000000000000e+00 0.0000000000000000e+00 0.0000000000000000e+00 0.0000000000000000e+00 0.0000000000000000e+00 0.0000000000000000e+00 0.0000000000000000e+00 0.0000000000000000e+00 0.0000000000000000e+00 0.0000000000000000e+00 0.0000000000000000e+00 0.0000000000000000e+00 0.0000000000000000e+00 0.0000000000000000e+00 0.0000000000000000e+00 0.0000000000000000e+00 0.0000000000000000e+00 0.0000000000000000e+00 0.0000000000000000e+00 0.0000000000000000e+00 0.0000000000000000e+00 0.0000000000000000e+00 0.0000000000000000e+00 0.0000000000000000e+00 0.0000000000000000e+00 0.0000000000000000e+00 0.0000000000000000e+00 0.0000000000000000e+00 0.0000000000000000e+00 0.0000000000000000e+00 0.0000000000000000e+00 0.0000000000000000e+00 0.0000000000000000e+00 0.0000000000000000e+00 0.0000000000000000e+00 0.0000000000000000e+00 0.0000000000000000e+00 0.0000000000000000e+00 0.0000000000000000e+00 0.0000000000000000e+00 0.0000000000000000e+00 0.0000000000000000e+00 0.0000000000000000e+00 0.0000000000000000e+00 0.0000000000000000e+00 0.0000000000000000e+00 0.0000000000000000e+00 0.0000000000000000e+00 0.0000000000000000e+00 0.0000000000000000e+00 0.0000000000000000e+00 0.0000000000000000e+00 0.0000000000000000e+00 0.0000000000000000e+00 0.0000000000000000e+00 0.0000000000000000e+00 0.0000000000000000e+00 0.0000000000000000e+00 0.0000000000000000e+00 0.0000000000000000e+00 0.0000000000000000e+00 0.0000000000000000e+00 0.0000000000000000e+00 0.0000000000000000e+00 0.0000000000000000e+00 0.0000000000000000e+00 0.0000000000000000e+00 0.0000000000000000e+00 0.0000000000000000e+00 0.0000000000000000e+00 0.0000000000000000e+00 0.0000000000000000e+00 0.0000000000000000e+00 0.0000000000000000e+00 0.0000000000000000e+00 0.0000000000000000e+00 0.0000000000000000e+00 0.0000000000000000e+00 0.0000000000000000e+00 0.0000000000000000e+00 0.0000000000000000e+00 0.0000000000000000e+00 0.0000000000000000e+00 0.0000000000000000e+00 0.0000000000000000e+00 0.0000000000000000e+00 0.0000000000000000e+00 0.0000000000000000e+00 0.0000000000000000e+00 0.0000000000000000e+00 0.0000000000000000e+00 0.0000000000000000e+00 0.0000000000000000e+00 0.0000000000000000e+00 0.0000000000000000e+00 0.0000000000000000e+00 0.0000000000000000e+00 0.0000000000000000e+00 0.0000000000000000e+00 0.0000000000000000e+00 0.0000000000000000e+00 0.0000000000000000e+00 0.0000000000000000e+00 0.0000000000000000e+00 0.0000000000000000e+00 0.0000000000000000e+00 0.0000000000000000e+00 0.0000000000000000e+00 0.0000000000000000e+00 0.0000000000000000e+00 0.0000000000000000e+00 0.0000000000000000e+00 0.0000000000000000e+00 0.0000000000000000e+00 0.0000000000000000e+00 0.0000000000000000e+00 0.0000000000000000e+00 0.0000000000000000e+00 0.0000000000000000e+00 0.0000000000000000e+00 0.0000000000000000e+00 0.0000000000000000e+00 0.0000000000000000e+00 0.0000000000000000e+00 0.0000000000000000e+00 0.0000000000000000e+00 0.0000000000000000e+00 0.0000000000000000e+00 0.0000000000000000e+00 0.0000000000000000e+00 0.0000000000000000e+00 0.0000000000000000e+00 0.0000000000000000e+00 0.0000000000000000e+00 0.0000000000000000e+00 0.0000000000000000e+00 0.0000000000000000e+00 0.0000000000000000e+00 0.0000000000000000e+00 0.0000000000000000e+00 0.0000000000000000e+00 0.0000000000000000e+00 0.0000000000000000e+00 0.0000000000000000e+00 0.0000000000000000e+00 0.0000000000000000e+00 0.0000000000000000e+00 0.0000000000000000e+00 0.0000000000000000e+00 0.0000000000000000e+00 0.0000000000000000e+00 0.0000000000000000e+00 0.0000000000000000e+00 0.0000000000000000e+00 0.0000000000000000e+00 0.0000000000000000e+00 0.0000000000000000e+00 0.0000000000000000e+00 0.0000000000000000e+00 0.0000000000000000e+00 0.0000000000000000e+00 0.0000000000000000e+00 0.0000000000000000e+00 0.0000000000000000e+00 0.0000000000000000e+00 0.0000000000000000e+00 0.0000000000000000e+00 0.0000000000000000e+00 0.0000000000000000e+00 0.0000000000000000e+00 0.0000000000000000e+00 0.0000000000000000e+00 0.0000000000000000e+00 0.0000000000000000e+00 0.0000000000000000e+00 0.0000000000000000e+00 0.0000000000000000e+00 0.0000000000000000e+00 0.0000000000000000e+00 0.0000000000000000e+00 0.0000000000000000e+00 0.0000000000000000e+00 0.0000000000000000e+00 0.0000000000000000e+00 0.0000000000000000e+00 0.0000000000000000e+00 0.0000000000000000e+00 0.0000000000000000e+00 0.0000000000000000e+00 0.0000000000000000e+00 0.0000000000000000e+00 0.0000000000000000e+00 0.0000000000000000e+00 0.0000000000000000e+00 0.0000000000000000e+00 0.0000000000000000e+00 0.0000000000000000e+00 0.0000000000000000e+00 0.0000000000000000e+00 0.0000000000000000e+00 0.0000000000000000e+00 0.0000000000000000e+00 0.0000000000000000e+00 0.0000000000000000e+00 0.0000000000000000e+00 0.0000000000000000e+00 0.0000000000000000e+00 0.0000000000000000e+00 0.0000000000000000e+00 0.0000000000000000e+00 0.0000000000000000e+00 0.0000000000000000e+00 0.0000000000000000e+00 0.0000000000000000e+00 0.0000000000000000e+00 0.0000000000000000e+00 0.0000000000000000e+00 0.0000000000000000e+00 0.0000000000000000e+00 0.0000000000000000e+00 0.0000000000000000e+00 0.0000000000000000e+00 0.0000000000000000e+00 0.0000000000000000e+00 0.0000000000000000e+00 0.0000000000000000e+00 0.0000000000000000e+00 0.0000000000000000e+00 0.0000000000000000e+00 0.0000000000000000e+00 0.0000000000000000e+00 0.0000000000000000e+00 0.0000000000000000e+00 0.0000000000000000e+00 0.0000000000000000e+00 0.0000000000000000e+00 0.0000000000000000e+00 0.0000000000000000e+00 0.0000000000000000e+00 0.0000000000000000e+00 0.0000000000000000e+00 0.0000000000000000e+00 0.0000000000000000e+00 0.0000000000000000e+00 0.0000000000000000e+00 0.0000000000000000e+00 0.0000000000000000e+00 0.0000000000000000e+00 0.0000000000000000e+00 0.0000000000000000e+00 0.0000000000000000e+00 0.0000000000000000e+00 0.0000000000000000e+00 0.0000000000000000e+00 0.0000000000000000e+00 0.0000000000000000e+00 0.0000000000000000e+00 0.0000000000000000e+00 0.0000000000000000e+00 0.0000000000000000e+00 0.0000000000000000e+00 0.0000000000000000e+00 0.0000000000000000e+00 0.0000000000000000e+00 0.0000000000000000e+00 0.0000000000000000e+00 0.0000000000000000e+00 0.0000000000000000e+00 0.0000000000000000e+00 0.0000000000000000e+00 0.0000000000000000e+00 0.0000000000000000e+00 0.0000000000000000e+00 0.0000000000000000e+00 0.0000000000000000e+00 0.0000000000000000e+00 0.0000000000000000e+00 0.0000000000000000e+00 0.0000000000000000e+00 0.0000000000000000e+00 0.0000000000000000e+00 0.0000000000000000e+00 0.0000000000000000e+00 0.0000000000000000e+00 0.0000000000000000e+00 0.0000000000000000e+00 0.0000000000000000e+00 0.0000000000000000e+00 0.0000000000000000e+00 0.0000000000000000e+00 0.0000000000000000e+00 0.0000000000000000e+00 0.0000000000000000e+00 0.0000000000000000e+00 0.0000000000000000e+00 0.0000000000000000e+00 0.0000000000000000e+00 0.0000000000000000e+00 0.0000000000000000e+00 0.0000000000000000e+00 0.0000000000000000e+00 0.0000000000000000e+00 0.0000000000000000e+00 0.0000000000000000e+00 0.0000000000000000e+00 0.0000000000000000e+00 0.0000000000000000e+00 0.0000000000000000e+00 0.0000000000000000e+00 0.0000000000000000e+00 0.0000000000000000e+00 0.0000000000000000e+00 0.0000000000000000e+00 0.0000000000000000e+00 0.0000000000000000e+00 0.0000000000000000e+00 0.0000000000000000e+00 0.0000000000000000e+00 0.0000000000000000e+00 0.0000000000000000e+00 0.0000000000000000e+00 0.0000000000000000e+00 0.0000000000000000e+00 0.0000000000000000e+00 0.0000000000000000e+00 0.0000000000000000e+00 0.0000000000000000e+00 0.0000000000000000e+00 0.0000000000000000e+00 0.0000000000000000e+00 0.0000000000000000e+00 0.0000000000000000e+00 0.0000000000000000e+00 0.0000000000000000e+00 0.0000000000000000e+00 0.0000000000000000e+00 0.0000000000000000e+00 0.0000000000000000e+00 0.0000000000000000e+00 0.0000000000000000e+00 0.0000000000000000e+00 0.0000000000000000e+00 0.0000000000000000e+00 0.0000000000000000e+00 0.0000000000000000e+00 0.0000000000000000e+00 0.0000000000000000e+00 0.0000000000000000e+00 0.0000000000000000e+00 0.0000000000000000e+00 0.0000000000000000e+00 0.0000000000000000e+00 0.0000000000000000e+00 0.0000000000000000e+00 0.0000000000000000e+00 0.0000000000000000e+00 0.0000000000000000e+00 0.0000000000000000e+00 0.0000000000000000e+00 0.0000000000000000e+00 0.0000000000000000e+00 0.0000000000000000e+00 0.0000000000000000e+00 0.0000000000000000e+00 0.0000000000000000e+00 0.0000000000000000e+00 0.0000000000000000e+00 0.0000000000000000e+00 0.0000000000000000e+00 0.0000000000000000e+00 0.0000000000000000e+00 0.0000000000000000e+00 0.0000000000000000e+00 0.0000000000000000e+00 0.0000000000000000e+00 0.0000000000000000e+00 0.0000000000000000e+00 0.0000000000000000e+00 0.0000000000000000e+00 0.0000000000000000e+00 0.0000000000000000e+00 0.0000000000000000e+00 0.0000000000000000e+00 0.0000000000000000e+00 0.0000000000000000e+00 0.0000000000000000e+00 0.0000000000000000e+00 0.0000000000000000e+00 0.0000000000000000e+00 0.0000000000000000e+00 0.0000000000000000e+00 0.0000000000000000e+00 0.0000000000000000e+00 0.0000000000000000e+00 0.0000000000000000e+00 0.0000000000000000e+00 0.0000000000000000e+00 0.0000000000000000e+00 0.0000000000000000e+00 0.0000000000000000e+00 0.0000000000000000e+00 0.0000000000000000e+00 0.0000000000000000e+00 0.0000000000000000e+00 0.0000000000000000e+00 0.0000000000000000e+00 0.0000000000000000e+00 0.0000000000000000e+00 0.0000000000000000e+00 0.0000000000000000e+00 0.0000000000000000e+00 0.0000000000000000e+00 0.0000000000000000e+00 0.0000000000000000e+00 0.0000000000000000e+00 0.0000000000000000e+00 0.0000000000000000e+00 0.0000000000000000e+00 0.0000000000000000e+00 0.0000000000000000e+00 0.0000000000000000e+00 0.0000000000000000e+00 0.0000000000000000e+00 0.0000000000000000e+00 0.0000000000000000e+00 0.0000000000000000e+00 0.0000000000000000e+00 0.0000000000000000e+00 0.0000000000000000e+00 0.0000000000000000e+00 0.0000000000000000e+00 0.0000000000000000e+00 0.0000000000000000e+00 0.0000000000000000e+00 0.0000000000000000e+00 0.0000000000000000e+00 0.0000000000000000e+00 0.0000000000000000e+00 0.0000000000000000e+00 0.0000000000000000e+00 0.0000000000000000e+00 0.0000000000000000e+00 0.0000000000000000e+00 0.0000000000000000e+00 0.0000000000000000e+00 -2.0886808776855469e+02 -8.3168153762817383e+00 -2.3020193481445313e+02 -1.5244052124023438e+02 1.0181145668029785e+01 -2.1302709960937500e+02 -1.6363853454589844e+02 8.6927375793457031e+00 -2.0676225280761719e+02 -1.4288586425781250e+02 1.3558623313903809e+01 -1.8935871887207031e+02 -1.5251152038574219e+02 2.1345808029174805e+01 -1.6202212524414063e+02 -1.3610917663574219e+02 2.1091283798217773e+01 -1.4360719299316406e+02 -1.0144573974609375e+02 8.3870630264282227e+00 -1.3085882568359375e+02 -9.0334175109863281e+01 2.6835410594940186e+00 -1.1675763702392578e+02 -8.2336196899414063e+01 -4.2646188735961914e+00 -1.0853923034667969e+02 -7.8934349060058594e+01 -1.2250440597534180e+01 -1.0512621307373047e+02 -9.5440299987792969e+01 -7.7441716194152832e+00 -1.0609065246582031e+02 -1.0621497344970703e+02 -1.3941207885742188e+01 -1.1570337677001953e+02 -1.0634377288818359e+02 -3.1771041870117188e+01 -1.3166992187500000e+02 -1.0141239166259766e+02 -2.4389987945556641e+01 -1.4144831848144531e+02 -1.1622852325439453e+02 -2.6525205612182617e+01 -1.5560540771484375e+02 -1.3173123168945313e+02 -2.4416393280029297e+01 -1.7550944519042969e+02 -1.4665901184082031e+02 -1.9283205032348633e+01 -1.9430012512207031e+02 -1.6070588684082031e+02 -9.1633081436157227e+00 -1.9995138549804688e+02 -2.0129934692382813e+02 5.2006049156188965e+00 -2.3784475708007813e+02 0.0000000000000000e+00 0.0000000000000000e+00 0.0000000000000000e+00 0.0000000000000000e+00 0.0000000000000000e+00 0.0000000000000000e+00 0.0000000000000000e+00 0.0000000000000000e+00 0.0000000000000000e+00 0.0000000000000000e+00 0.0000000000000000e+00 0.0000000000000000e+00 0.0000000000000000e+00 0.0000000000000000e+00 0.0000000000000000e+00 0.0000000000000000e+00 0.0000000000000000e+00 0.0000000000000000e+00 0.0000000000000000e+00 0.0000000000000000e+00 0.0000000000000000e+00 0.0000000000000000e+00 0.0000000000000000e+00 0.0000000000000000e+00 0.0000000000000000e+00 0.0000000000000000e+00 0.0000000000000000e+00 0.0000000000000000e+00 0.0000000000000000e+00 0.0000000000000000e+00 0.0000000000000000e+00 0.0000000000000000e+00 0.0000000000000000e+00 0.0000000000000000e+00 0.0000000000000000e+00 0.0000000000000000e+00 0.0000000000000000e+00 0.0000000000000000e+00 0.0000000000000000e+00 0.0000000000000000e+00 0.0000000000000000e+00 0.0000000000000000e+00 0.0000000000000000e+00 0.0000000000000000e+00 0.0000000000000000e+00 0.0000000000000000e+00 0.0000000000000000e+00 0.0000000000000000e+00 0.0000000000000000e+00 0.0000000000000000e+00 0.0000000000000000e+00 0.0000000000000000e+00 0.0000000000000000e+00 0.0000000000000000e+00 0.0000000000000000e+00 0.0000000000000000e+00 0.0000000000000000e+00 0.0000000000000000e+00 0.0000000000000000e+00 0.0000000000000000e+00 0.0000000000000000e+00 0.0000000000000000e+00 0.0000000000000000e+00 0.0000000000000000e+00 0.0000000000000000e+00 0.0000000000000000e+00 0.0000000000000000e+00 0.0000000000000000e+00 0.0000000000000000e+00 0.0000000000000000e+00 0.0000000000000000e+00 0.0000000000000000e+00 0.0000000000000000e+00 0.0000000000000000e+00 0.0000000000000000e+00 0.0000000000000000e+00 0.0000000000000000e+00 0.0000000000000000e+00 0.0000000000000000e+00 0.0000000000000000e+00 0.0000000000000000e+00 0.0000000000000000e+00 0.0000000000000000e+00 0.0000000000000000e+00 0.0000000000000000e+00 0.0000000000000000e+00 0.0000000000000000e+00 0.0000000000000000e+00 0.0000000000000000e+00 0.0000000000000000e+00 0.0000000000000000e+00 0.0000000000000000e+00 0.0000000000000000e+00 0.0000000000000000e+00 0.0000000000000000e+00 0.0000000000000000e+00 0.0000000000000000e+00 0.0000000000000000e+00 0.0000000000000000e+00 0.0000000000000000e+00 0.0000000000000000e+00 0.0000000000000000e+00 0.0000000000000000e+00 0.0000000000000000e+00 0.0000000000000000e+00 0.0000000000000000e+00 0.0000000000000000e+00 0.0000000000000000e+00 0.0000000000000000e+00 0.0000000000000000e+00 0.0000000000000000e+00 0.0000000000000000e+00 0.0000000000000000e+00 0.0000000000000000e+00 0.0000000000000000e+00 0.0000000000000000e+00 0.0000000000000000e+00 0.0000000000000000e+00 0.0000000000000000e+00 0.0000000000000000e+00 0.0000000000000000e+00 0.0000000000000000e+00 0.0000000000000000e+00 0.0000000000000000e+00 0.0000000000000000e+00 0.0000000000000000e+00 0.0000000000000000e+00 0.0000000000000000e+00 0.0000000000000000e+00 0.0000000000000000e+00 0.0000000000000000e+00 0.0000000000000000e+00 0.0000000000000000e+00 0.0000000000000000e+00 0.0000000000000000e+00 0.0000000000000000e+00 0.0000000000000000e+00 0.0000000000000000e+00 0.0000000000000000e+00 0.0000000000000000e+00 0.0000000000000000e+00 0.0000000000000000e+00 0.0000000000000000e+00 0.0000000000000000e+00 0.0000000000000000e+00 0.0000